+ 0.1 0 1 cbr 500 ------- 0 0.0 2.0 0 0
- 0.1 0 1 cbr 500 ------- 0 0.0 2.0 0 0
+ 0.105 0 1 cbr 500 ------- 0 0.0 2.0 1 1
- 0.105 0 1 cbr 500 ------- 0 0.0 2.0 1 1
+ 0.11 0 1 cbr 500 ------- 0 0.0 2.0 2 2
- 0.11 0 1 cbr 500 ------- 0 0.0 2.0 2 2
r 0.112667 0 1 cbr 500 ------- 0 0.0 2.0 0 0
+ 0.112667 1 2 cbr 500 ------- 0 0.0 2.0 0 0
- 0.112667 1 2 cbr 500 ------- 0 0.0 2.0 0 0
+ 0.115 0 1 cbr 500 ------- 0 0.0 2.0 3 3
- 0.115 0 1 cbr 500 ------- 0 0.0 2.0 3 3
r 0.117667 0 1 cbr 500 ------- 0 0.0 2.0 1 1
+ 0.117667 1 2 cbr 500 ------- 0 0.0 2.0 1 1
+ 0.12 0 1 cbr 500 ------- 0 0.0 2.0 4 4
- 0.12 0 1 cbr 500 ------- 0 0.0 2.0 4 4
- 0.120479 1 2 cbr 500 ------- 0 0.0 2.0 1 1
r 0.122667 0 1 cbr 500 ------- 0 0.0 2.0 2 2
+ 0.122667 1 2 cbr 500 ------- 0 0.0 2.0 2 2
+ 0.125 0 1 cbr 500 ------- 0 0.0 2.0 5 5
- 0.125 0 1 cbr 500 ------- 0 0.0 2.0 5 5
r 0.127667 0 1 cbr 500 ------- 0 0.0 2.0 3 3
+ 0.127667 1 2 cbr 500 ------- 0 0.0 2.0 3 3
- 0.128292 1 2 cbr 500 ------- 0 0.0 2.0 2 2
+ 0.13 0 1 cbr 500 ------- 0 0.0 2.0 6 6
- 0.13 0 1 cbr 500 ------- 0 0.0 2.0 6 6
r 0.130479 1 2 cbr 500 ------- 0 0.0 2.0 0 0
r 0.132667 0 1 cbr 500 ------- 0 0.0 2.0 4 4
+ 0.132667 1 2 cbr 500 ------- 0 0.0 2.0 4 4
+ 0.135 0 1 cbr 500 ------- 0 0.0 2.0 7 7
- 0.135 0 1 cbr 500 ------- 0 0.0 2.0 7 7
- 0.136104 1 2 cbr 500 ------- 0 0.0 2.0 3 3
r 0.137667 0 1 cbr 500 ------- 0 0.0 2.0 5 5
+ 0.137667 1 2 cbr 500 ------- 0 0.0 2.0 5 5
r 0.138292 1 2 cbr 500 ------- 0 0.0 2.0 1 1
+ 0.14 0 1 cbr 500 ------- 0 0.0 2.0 8 8
- 0.14 0 1 cbr 500 ------- 0 0.0 2.0 8 8
r 0.142667 0 1 cbr 500 ------- 0 0.0 2.0 6 6
+ 0.142667 1 2 cbr 500 ------- 0 0.0 2.0 6 6
- 0.143917 1 2 cbr 500 ------- 0 0.0 2.0 4 4
+ 0.145 0 1 cbr 500 ------- 0 0.0 2.0 9 9
- 0.145 0 1 cbr 500 ------- 0 0.0 2.0 9 9
r 0.146104 1 2 cbr 500 ------- 0 0.0 2.0 2 2
r 0.147667 0 1 cbr 500 ------- 0 0.0 2.0 7 7
+ 0.147667 1 2 cbr 500 ------- 0 0.0 2.0 7 7
+ 0.15 0 1 cbr 500 ------- 0 0.0 2.0 10 10
- 0.15 0 1 cbr 500 ------- 0 0.0 2.0 10 10
- 0.151729 1 2 cbr 500 ------- 0 0.0 2.0 5 5
r 0.152667 0 1 cbr 500 ------- 0 0.0 2.0 8 8
+ 0.152667 1 2 cbr 500 ------- 0 0.0 2.0 8 8
r 0.153917 1 2 cbr 500 ------- 0 0.0 2.0 3 3
+ 0.155 0 1 cbr 500 ------- 0 0.0 2.0 11 11
- 0.155 0 1 cbr 500 ------- 0 0.0 2.0 11 11
r 0.157667 0 1 cbr 500 ------- 0 0.0 2.0 9 9
+ 0.157667 1 2 cbr 500 ------- 0 0.0 2.0 9 9
- 0.159542 1 2 cbr 500 ------- 0 0.0 2.0 6 6
+ 0.16 0 1 cbr 500 ------- 0 0.0 2.0 12 12
- 0.16 0 1 cbr 500 ------- 0 0.0 2.0 12 12
r 0.161729 1 2 cbr 500 ------- 0 0.0 2.0 4 4
r 0.162667 0 1 cbr 500 ------- 0 0.0 2.0 10 10
+ 0.162667 1 2 cbr 500 ------- 0 0.0 2.0 10 10
+ 0.165 0 1 cbr 500 ------- 0 0.0 2.0 13 13
- 0.165 0 1 cbr 500 ------- 0 0.0 2.0 13 13
- 0.167354 1 2 cbr 500 ------- 0 0.0 2.0 7 7
r 0.167667 0 1 cbr 500 ------- 0 0.0 2.0 11 11
+ 0.167667 1 2 cbr 500 ------- 0 0.0 2.0 11 11
r 0.169542 1 2 cbr 500 ------- 0 0.0 2.0 5 5
+ 0.17 0 1 cbr 500 ------- 0 0.0 2.0 14 14
- 0.17 0 1 cbr 500 ------- 0 0.0 2.0 14 14
r 0.172667 0 1 cbr 500 ------- 0 0.0 2.0 12 12
+ 0.172667 1 2 cbr 500 ------- 0 0.0 2.0 12 12
d 0.172667 1 2 cbr 500 ------- 0 0.0 2.0 12 12
+ 0.175 0 1 cbr 500 ------- 0 0.0 2.0 15 15
- 0.175 0 1 cbr 500 ------- 0 0.0 2.0 15 15
- 0.175167 1 2 cbr 500 ------- 0 0.0 2.0 8 8
r 0.177354 1 2 cbr 500 ------- 0 0.0 2.0 6 6
r 0.177667 0 1 cbr 500 ------- 0 0.0 2.0 13 13
+ 0.177667 1 2 cbr 500 ------- 0 0.0 2.0 13 13
+ 0.18 0 1 cbr 500 ------- 0 0.0 2.0 16 16
- 0.18 0 1 cbr 500 ------- 0 0.0 2.0 16 16
r 0.182667 0 1 cbr 500 ------- 0 0.0 2.0 14 14
+ 0.182667 1 2 cbr 500 ------- 0 0.0 2.0 14 14
d 0.182667 1 2 cbr 500 ------- 0 0.0 2.0 14 14
- 0.182979 1 2 cbr 500 ------- 0 0.0 2.0 9 9
+ 0.185 0 1 cbr 500 ------- 0 0.0 2.0 17 17
- 0.185 0 1 cbr 500 ------- 0 0.0 2.0 17 17
r 0.185167 1 2 cbr 500 ------- 0 0.0 2.0 7 7
r 0.187667 0 1 cbr 500 ------- 0 0.0 2.0 15 15
+ 0.187667 1 2 cbr 500 ------- 0 0.0 2.0 15 15
+ 0.19 0 1 cbr 500 ------- 0 0.0 2.0 18 18
- 0.19 0 1 cbr 500 ------- 0 0.0 2.0 18 18
- 0.190792 1 2 cbr 500 ------- 0 0.0 2.0 10 10
r 0.192667 0 1 cbr 500 ------- 0 0.0 2.0 16 16
+ 0.192667 1 2 cbr 500 ------- 0 0.0 2.0 16 16
r 0.192979 1 2 cbr 500 ------- 0 0.0 2.0 8 8
+ 0.195 0 1 cbr 500 ------- 0 0.0 2.0 19 19
- 0.195 0 1 cbr 500 ------- 0 0.0 2.0 19 19
r 0.197667 0 1 cbr 500 ------- 0 0.0 2.0 17 17
+ 0.197667 1 2 cbr 500 ------- 0 0.0 2.0 17 17
d 0.197667 1 2 cbr 500 ------- 0 0.0 2.0 17 17
- 0.198604 1 2 cbr 500 ------- 0 0.0 2.0 11 11
+ 0.2 0 1 cbr 500 ------- 0 0.0 2.0 20 20
- 0.2 0 1 cbr 500 ------- 0 0.0 2.0 20 20
r 0.200792 1 2 cbr 500 ------- 0 0.0 2.0 9 9
r 0.202667 0 1 cbr 500 ------- 0 0.0 2.0 18 18
+ 0.202667 1 2 cbr 500 ------- 0 0.0 2.0 18 18
+ 0.205 0 1 cbr 500 ------- 0 0.0 2.0 21 21
- 0.205 0 1 cbr 500 ------- 0 0.0 2.0 21 21
- 0.206417 1 2 cbr 500 ------- 0 0.0 2.0 13 13
r 0.207667 0 1 cbr 500 ------- 0 0.0 2.0 19 19
+ 0.207667 1 2 cbr 500 ------- 0 0.0 2.0 19 19
r 0.208604 1 2 cbr 500 ------- 0 0.0 2.0 10 10
+ 0.21 0 1 cbr 500 ------- 0 0.0 2.0 22 22
- 0.21 0 1 cbr 500 ------- 0 0.0 2.0 22 22
r 0.212667 0 1 cbr 500 ------- 0 0.0 2.0 20 20
+ 0.212667 1 2 cbr 500 ------- 0 0.0 2.0 20 20
d 0.212667 1 2 cbr 500 ------- 0 0.0 2.0 20 20
- 0.214229 1 2 cbr 500 ------- 0 0.0 2.0 15 15
+ 0.215 0 1 cbr 500 ------- 0 0.0 2.0 23 23
- 0.215 0 1 cbr 500 ------- 0 0.0 2.0 23 23
r 0.216417 1 2 cbr 500 ------- 0 0.0 2.0 11 11
r 0.217667 0 1 cbr 500 ------- 0 0.0 2.0 21 21
+ 0.217667 1 2 cbr 500 ------- 0 0.0 2.0 21 21
+ 0.22 0 1 cbr 500 ------- 0 0.0 2.0 24 24
- 0.22 0 1 cbr 500 ------- 0 0.0 2.0 24 24
- 0.222042 1 2 cbr 500 ------- 0 0.0 2.0 16 16
r 0.222667 0 1 cbr 500 ------- 0 0.0 2.0 22 22
+ 0.222667 1 2 cbr 500 ------- 0 0.0 2.0 22 22
r 0.224229 1 2 cbr 500 ------- 0 0.0 2.0 13 13
+ 0.225 0 1 cbr 500 ------- 0 0.0 2.0 25 25
- 0.225 0 1 cbr 500 ------- 0 0.0 2.0 25 25
r 0.227667 0 1 cbr 500 ------- 0 0.0 2.0 23 23
+ 0.227667 1 2 cbr 500 ------- 0 0.0 2.0 23 23
d 0.227667 1 2 cbr 500 ------- 0 0.0 2.0 23 23
- 0.229854 1 2 cbr 500 ------- 0 0.0 2.0 18 18
+ 0.23 0 1 cbr 500 ------- 0 0.0 2.0 26 26
- 0.23 0 1 cbr 500 ------- 0 0.0 2.0 26 26
r 0.232042 1 2 cbr 500 ------- 0 0.0 2.0 15 15
r 0.232667 0 1 cbr 500 ------- 0 0.0 2.0 24 24
+ 0.232667 1 2 cbr 500 ------- 0 0.0 2.0 24 24
+ 0.235 0 1 cbr 500 ------- 0 0.0 2.0 27 27
- 0.235 0 1 cbr 500 ------- 0 0.0 2.0 27 27
- 0.237667 1 2 cbr 500 ------- 0 0.0 2.0 19 19
r 0.237667 0 1 cbr 500 ------- 0 0.0 2.0 25 25
+ 0.237667 1 2 cbr 500 ------- 0 0.0 2.0 25 25
r 0.239854 1 2 cbr 500 ------- 0 0.0 2.0 16 16
+ 0.24 0 1 cbr 500 ------- 0 0.0 2.0 28 28
- 0.24 0 1 cbr 500 ------- 0 0.0 2.0 28 28
r 0.242667 0 1 cbr 500 ------- 0 0.0 2.0 26 26
+ 0.242667 1 2 cbr 500 ------- 0 0.0 2.0 26 26
d 0.242667 1 2 cbr 500 ------- 0 0.0 2.0 26 26
+ 0.245 0 1 cbr 500 ------- 0 0.0 2.0 29 29
- 0.245 0 1 cbr 500 ------- 0 0.0 2.0 29 29
- 0.245479 1 2 cbr 500 ------- 0 0.0 2.0 21 21
r 0.247667 1 2 cbr 500 ------- 0 0.0 2.0 18 18
r 0.247667 0 1 cbr 500 ------- 0 0.0 2.0 27 27
+ 0.247667 1 2 cbr 500 ------- 0 0.0 2.0 27 27
+ 0.25 0 1 cbr 500 ------- 0 0.0 2.0 30 30
- 0.25 0 1 cbr 500 ------- 0 0.0 2.0 30 30
r 0.252667 0 1 cbr 500 ------- 0 0.0 2.0 28 28
+ 0.252667 1 2 cbr 500 ------- 0 0.0 2.0 28 28
d 0.252667 1 2 cbr 500 ------- 0 0.0 2.0 28 28
- 0.253292 1 2 cbr 500 ------- 0 0.0 2.0 22 22
+ 0.255 0 1 cbr 500 ------- 0 0.0 2.0 31 31
- 0.255 0 1 cbr 500 ------- 0 0.0 2.0 31 31
r 0.255479 1 2 cbr 500 ------- 0 0.0 2.0 19 19
r 0.257667 0 1 cbr 500 ------- 0 0.0 2.0 29 29
+ 0.257667 1 2 cbr 500 ------- 0 0.0 2.0 29 29
+ 0.26 0 1 cbr 500 ------- 0 0.0 2.0 32 32
- 0.26 0 1 cbr 500 ------- 0 0.0 2.0 32 32
- 0.261104 1 2 cbr 500 ------- 0 0.0 2.0 24 24
r 0.262667 0 1 cbr 500 ------- 0 0.0 2.0 30 30
+ 0.262667 1 2 cbr 500 ------- 0 0.0 2.0 30 30
r 0.263292 1 2 cbr 500 ------- 0 0.0 2.0 21 21
+ 0.265 0 1 cbr 500 ------- 0 0.0 2.0 33 33
- 0.265 0 1 cbr 500 ------- 0 0.0 2.0 33 33
r 0.267667 0 1 cbr 500 ------- 0 0.0 2.0 31 31
+ 0.267667 1 2 cbr 500 ------- 0 0.0 2.0 31 31
d 0.267667 1 2 cbr 500 ------- 0 0.0 2.0 31 31
- 0.268917 1 2 cbr 500 ------- 0 0.0 2.0 25 25
+ 0.27 0 1 cbr 500 ------- 0 0.0 2.0 34 34
- 0.27 0 1 cbr 500 ------- 0 0.0 2.0 34 34
r 0.271104 1 2 cbr 500 ------- 0 0.0 2.0 22 22
r 0.272667 0 1 cbr 500 ------- 0 0.0 2.0 32 32
+ 0.272667 1 2 cbr 500 ------- 0 0.0 2.0 32 32
+ 0.275 0 1 cbr 500 ------- 0 0.0 2.0 35 35
- 0.275 0 1 cbr 500 ------- 0 0.0 2.0 35 35
- 0.276729 1 2 cbr 500 ------- 0 0.0 2.0 27 27
r 0.277667 0 1 cbr 500 ------- 0 0.0 2.0 33 33
+ 0.277667 1 2 cbr 500 ------- 0 0.0 2.0 33 33
r 0.278917 1 2 cbr 500 ------- 0 0.0 2.0 24 24
+ 0.28 0 1 cbr 500 ------- 0 0.0 2.0 36 36
- 0.28 0 1 cbr 500 ------- 0 0.0 2.0 36 36
r 0.282667 0 1 cbr 500 ------- 0 0.0 2.0 34 34
+ 0.282667 1 2 cbr 500 ------- 0 0.0 2.0 34 34
d 0.282667 1 2 cbr 500 ------- 0 0.0 2.0 34 34
- 0.284542 1 2 cbr 500 ------- 0 0.0 2.0 29 29
+ 0.285 0 1 cbr 500 ------- 0 0.0 2.0 37 37
- 0.285 0 1 cbr 500 ------- 0 0.0 2.0 37 37
r 0.286729 1 2 cbr 500 ------- 0 0.0 2.0 25 25
r 0.287667 0 1 cbr 500 ------- 0 0.0 2.0 35 35
+ 0.287667 1 2 cbr 500 ------- 0 0.0 2.0 35 35
+ 0.29 0 1 cbr 500 ------- 0 0.0 2.0 38 38
- 0.29 0 1 cbr 500 ------- 0 0.0 2.0 38 38
- 0.292354 1 2 cbr 500 ------- 0 0.0 2.0 30 30
r 0.292667 0 1 cbr 500 ------- 0 0.0 2.0 36 36
+ 0.292667 1 2 cbr 500 ------- 0 0.0 2.0 36 36
r 0.294542 1 2 cbr 500 ------- 0 0.0 2.0 27 27
+ 0.295 0 1 cbr 500 ------- 0 0.0 2.0 39 39
- 0.295 0 1 cbr 500 ------- 0 0.0 2.0 39 39
r 0.297667 0 1 cbr 500 ------- 0 0.0 2.0 37 37
+ 0.297667 1 2 cbr 500 ------- 0 0.0 2.0 37 37
d 0.297667 1 2 cbr 500 ------- 0 0.0 2.0 37 37
+ 0.3 0 1 cbr 500 ------- 0 0.0 2.0 40 40
- 0.3 0 1 cbr 500 ------- 0 0.0 2.0 40 40
- 0.300167 1 2 cbr 500 ------- 0 0.0 2.0 32 32
r 0.302354 1 2 cbr 500 ------- 0 0.0 2.0 29 29
r 0.302667 0 1 cbr 500 ------- 0 0.0 2.0 38 38
+ 0.302667 1 2 cbr 500 ------- 0 0.0 2.0 38 38
+ 0.305 0 1 cbr 500 ------- 0 0.0 2.0 41 41
- 0.305 0 1 cbr 500 ------- 0 0.0 2.0 41 41
r 0.307667 0 1 cbr 500 ------- 0 0.0 2.0 39 39
+ 0.307667 1 2 cbr 500 ------- 0 0.0 2.0 39 39
d 0.307667 1 2 cbr 500 ------- 0 0.0 2.0 39 39
- 0.307979 1 2 cbr 500 ------- 0 0.0 2.0 33 33
+ 0.31 0 1 cbr 500 ------- 0 0.0 2.0 42 42
- 0.31 0 1 cbr 500 ------- 0 0.0 2.0 42 42
r 0.310167 1 2 cbr 500 ------- 0 0.0 2.0 30 30
r 0.312667 0 1 cbr 500 ------- 0 0.0 2.0 40 40
+ 0.312667 1 2 cbr 500 ------- 0 0.0 2.0 40 40
+ 0.315 0 1 cbr 500 ------- 0 0.0 2.0 43 43
- 0.315 0 1 cbr 500 ------- 0 0.0 2.0 43 43
- 0.315792 1 2 cbr 500 ------- 0 0.0 2.0 35 35
r 0.317667 0 1 cbr 500 ------- 0 0.0 2.0 41 41
+ 0.317667 1 2 cbr 500 ------- 0 0.0 2.0 41 41
r 0.317979 1 2 cbr 500 ------- 0 0.0 2.0 32 32
+ 0.32 0 1 cbr 500 ------- 0 0.0 2.0 44 44
- 0.32 0 1 cbr 500 ------- 0 0.0 2.0 44 44
r 0.322667 0 1 cbr 500 ------- 0 0.0 2.0 42 42
+ 0.322667 1 2 cbr 500 ------- 0 0.0 2.0 42 42
d 0.322667 1 2 cbr 500 ------- 0 0.0 2.0 42 42
- 0.323604 1 2 cbr 500 ------- 0 0.0 2.0 36 36
+ 0.325 0 1 cbr 500 ------- 0 0.0 2.0 45 45
- 0.325 0 1 cbr 500 ------- 0 0.0 2.0 45 45
r 0.325792 1 2 cbr 500 ------- 0 0.0 2.0 33 33
r 0.327667 0 1 cbr 500 ------- 0 0.0 2.0 43 43
+ 0.327667 1 2 cbr 500 ------- 0 0.0 2.0 43 43
+ 0.33 0 1 cbr 500 ------- 0 0.0 2.0 46 46
- 0.33 0 1 cbr 500 ------- 0 0.0 2.0 46 46
- 0.331417 1 2 cbr 500 ------- 0 0.0 2.0 38 38
r 0.332667 0 1 cbr 500 ------- 0 0.0 2.0 44 44
+ 0.332667 1 2 cbr 500 ------- 0 0.0 2.0 44 44
r 0.333604 1 2 cbr 500 ------- 0 0.0 2.0 35 35
+ 0.335 0 1 cbr 500 ------- 0 0.0 2.0 47 47
- 0.335 0 1 cbr 500 ------- 0 0.0 2.0 47 47
r 0.337667 0 1 cbr 500 ------- 0 0.0 2.0 45 45
+ 0.337667 1 2 cbr 500 ------- 0 0.0 2.0 45 45
d 0.337667 1 2 cbr 500 ------- 0 0.0 2.0 45 45
- 0.339229 1 2 cbr 500 ------- 0 0.0 2.0 40 40
+ 0.34 0 1 cbr 500 ------- 0 0.0 2.0 48 48
- 0.34 0 1 cbr 500 ------- 0 0.0 2.0 48 48
r 0.341417 1 2 cbr 500 ------- 0 0.0 2.0 36 36
r 0.342667 0 1 cbr 500 ------- 0 0.0 2.0 46 46
+ 0.342667 1 2 cbr 500 ------- 0 0.0 2.0 46 46
+ 0.345 0 1 cbr 500 ------- 0 0.0 2.0 49 49
- 0.345 0 1 cbr 500 ------- 0 0.0 2.0 49 49
- 0.347042 1 2 cbr 500 ------- 0 0.0 2.0 41 41
r 0.347667 0 1 cbr 500 ------- 0 0.0 2.0 47 47
+ 0.347667 1 2 cbr 500 ------- 0 0.0 2.0 47 47
r 0.349229 1 2 cbr 500 ------- 0 0.0 2.0 38 38
+ 0.35 0 1 cbr 500 ------- 0 0.0 2.0 50 50
- 0.35 0 1 cbr 500 ------- 0 0.0 2.0 50 50
r 0.352667 0 1 cbr 500 ------- 0 0.0 2.0 48 48
+ 0.352667 1 2 cbr 500 ------- 0 0.0 2.0 48 48
d 0.352667 1 2 cbr 500 ------- 0 0.0 2.0 48 48
- 0.354854 1 2 cbr 500 ------- 0 0.0 2.0 43 43
+ 0.355 0 1 cbr 500 ------- 0 0.0 2.0 51 51
- 0.355 0 1 cbr 500 ------- 0 0.0 2.0 51 51
r 0.357042 1 2 cbr 500 ------- 0 0.0 2.0 40 40
r 0.357667 0 1 cbr 500 ------- 0 0.0 2.0 49 49
+ 0.357667 1 2 cbr 500 ------- 0 0.0 2.0 49 49
+ 0.36 0 1 cbr 500 ------- 0 0.0 2.0 52 52
- 0.36 0 1 cbr 500 ------- 0 0.0 2.0 52 52
- 0.362667 1 2 cbr 500 ------- 0 0.0 2.0 44 44
r 0.362667 0 1 cbr 500 ------- 0 0.0 2.0 50 50
+ 0.362667 1 2 cbr 500 ------- 0 0.0 2.0 50 50
r 0.364854 1 2 cbr 500 ------- 0 0.0 2.0 41 41
+ 0.365 0 1 cbr 500 ------- 0 0.0 2.0 53 53
- 0.365 0 1 cbr 500 ------- 0 0.0 2.0 53 53
r 0.367667 0 1 cbr 500 ------- 0 0.0 2.0 51 51
+ 0.367667 1 2 cbr 500 ------- 0 0.0 2.0 51 51
d 0.367667 1 2 cbr 500 ------- 0 0.0 2.0 51 51
+ 0.37 0 1 cbr 500 ------- 0 0.0 2.0 54 54
- 0.37 0 1 cbr 500 ------- 0 0.0 2.0 54 54
- 0.370479 1 2 cbr 500 ------- 0 0.0 2.0 46 46
r 0.372667 1 2 cbr 500 ------- 0 0.0 2.0 43 43
r 0.372667 0 1 cbr 500 ------- 0 0.0 2.0 52 52
+ 0.372667 1 2 cbr 500 ------- 0 0.0 2.0 52 52
+ 0.375 0 1 cbr 500 ------- 0 0.0 2.0 55 55
- 0.375 0 1 cbr 500 ------- 0 0.0 2.0 55 55
r 0.377667 0 1 cbr 500 ------- 0 0.0 2.0 53 53
+ 0.377667 1 2 cbr 500 ------- 0 0.0 2.0 53 53
d 0.377667 1 2 cbr 500 ------- 0 0.0 2.0 53 53
- 0.378292 1 2 cbr 500 ------- 0 0.0 2.0 47 47
+ 0.38 0 1 cbr 500 ------- 0 0.0 2.0 56 56
- 0.38 0 1 cbr 500 ------- 0 0.0 2.0 56 56
r 0.380479 1 2 cbr 500 ------- 0 0.0 2.0 44 44
r 0.382667 0 1 cbr 500 ------- 0 0.0 2.0 54 54
+ 0.382667 1 2 cbr 500 ------- 0 0.0 2.0 54 54
+ 0.385 0 1 cbr 500 ------- 0 0.0 2.0 57 57
- 0.385 0 1 cbr 500 ------- 0 0.0 2.0 57 57
- 0.386104 1 2 cbr 500 ------- 0 0.0 2.0 49 49
r 0.387667 0 1 cbr 500 ------- 0 0.0 2.0 55 55
+ 0.387667 1 2 cbr 500 ------- 0 0.0 2.0 55 55
r 0.388292 1 2 cbr 500 ------- 0 0.0 2.0 46 46
+ 0.39 0 1 cbr 500 ------- 0 0.0 2.0 58 58
- 0.39 0 1 cbr 500 ------- 0 0.0 2.0 58 58
r 0.392667 0 1 cbr 500 ------- 0 0.0 2.0 56 56
+ 0.392667 1 2 cbr 500 ------- 0 0.0 2.0 56 56
d 0.392667 1 2 cbr 500 ------- 0 0.0 2.0 56 56
- 0.393917 1 2 cbr 500 ------- 0 0.0 2.0 50 50
+ 0.395 0 1 cbr 500 ------- 0 0.0 2.0 59 59
- 0.395 0 1 cbr 500 ------- 0 0.0 2.0 59 59
r 0.396104 1 2 cbr 500 ------- 0 0.0 2.0 47 47
r 0.397667 0 1 cbr 500 ------- 0 0.0 2.0 57 57
+ 0.397667 1 2 cbr 500 ------- 0 0.0 2.0 57 57
+ 0.4 0 1 cbr 500 ------- 0 0.0 2.0 60 60
- 0.4 0 1 cbr 500 ------- 0 0.0 2.0 60 60
- 0.401729 1 2 cbr 500 ------- 0 0.0 2.0 52 52
r 0.402667 0 1 cbr 500 ------- 0 0.0 2.0 58 58
+ 0.402667 1 2 cbr 500 ------- 0 0.0 2.0 58 58
r 0.403917 1 2 cbr 500 ------- 0 0.0 2.0 49 49
+ 0.405 0 1 cbr 500 ------- 0 0.0 2.0 61 61
- 0.405 0 1 cbr 500 ------- 0 0.0 2.0 61 61
r 0.407667 0 1 cbr 500 ------- 0 0.0 2.0 59 59
+ 0.407667 1 2 cbr 500 ------- 0 0.0 2.0 59 59
d 0.407667 1 2 cbr 500 ------- 0 0.0 2.0 59 59
- 0.409542 1 2 cbr 500 ------- 0 0.0 2.0 54 54
+ 0.41 0 1 cbr 500 ------- 0 0.0 2.0 62 62
- 0.41 0 1 cbr 500 ------- 0 0.0 2.0 62 62
r 0.411729 1 2 cbr 500 ------- 0 0.0 2.0 50 50
r 0.412667 0 1 cbr 500 ------- 0 0.0 2.0 60 60
+ 0.412667 1 2 cbr 500 ------- 0 0.0 2.0 60 60
+ 0.415 0 1 cbr 500 ------- 0 0.0 2.0 63 63
- 0.415 0 1 cbr 500 ------- 0 0.0 2.0 63 63
- 0.417354 1 2 cbr 500 ------- 0 0.0 2.0 55 55
r 0.417667 0 1 cbr 500 ------- 0 0.0 2.0 61 61
+ 0.417667 1 2 cbr 500 ------- 0 0.0 2.0 61 61
r 0.419542 1 2 cbr 500 ------- 0 0.0 2.0 52 52
+ 0.42 0 1 cbr 500 ------- 0 0.0 2.0 64 64
- 0.42 0 1 cbr 500 ------- 0 0.0 2.0 64 64
r 0.422667 0 1 cbr 500 ------- 0 0.0 2.0 62 62
+ 0.422667 1 2 cbr 500 ------- 0 0.0 2.0 62 62
d 0.422667 1 2 cbr 500 ------- 0 0.0 2.0 62 62
+ 0.425 0 1 cbr 500 ------- 0 0.0 2.0 65 65
- 0.425 0 1 cbr 500 ------- 0 0.0 2.0 65 65
- 0.425167 1 2 cbr 500 ------- 0 0.0 2.0 57 57
r 0.427354 1 2 cbr 500 ------- 0 0.0 2.0 54 54
r 0.427667 0 1 cbr 500 ------- 0 0.0 2.0 63 63
+ 0.427667 1 2 cbr 500 ------- 0 0.0 2.0 63 63
+ 0.43 0 1 cbr 500 ------- 0 0.0 2.0 66 66
- 0.43 0 1 cbr 500 ------- 0 0.0 2.0 66 66
r 0.432667 0 1 cbr 500 ------- 0 0.0 2.0 64 64
+ 0.432667 1 2 cbr 500 ------- 0 0.0 2.0 64 64
d 0.432667 1 2 cbr 500 ------- 0 0.0 2.0 64 64
- 0.432979 1 2 cbr 500 ------- 0 0.0 2.0 58 58
+ 0.435 0 1 cbr 500 ------- 0 0.0 2.0 67 67
- 0.435 0 1 cbr 500 ------- 0 0.0 2.0 67 67
r 0.435167 1 2 cbr 500 ------- 0 0.0 2.0 55 55
r 0.437667 0 1 cbr 500 ------- 0 0.0 2.0 65 65
+ 0.437667 1 2 cbr 500 ------- 0 0.0 2.0 65 65
+ 0.44 0 1 cbr 500 ------- 0 0.0 2.0 68 68
- 0.44 0 1 cbr 500 ------- 0 0.0 2.0 68 68
- 0.440792 1 2 cbr 500 ------- 0 0.0 2.0 60 60
r 0.442667 0 1 cbr 500 ------- 0 0.0 2.0 66 66
+ 0.442667 1 2 cbr 500 ------- 0 0.0 2.0 66 66
r 0.442979 1 2 cbr 500 ------- 0 0.0 2.0 57 57
+ 0.445 0 1 cbr 500 ------- 0 0.0 2.0 69 69
- 0.445 0 1 cbr 500 ------- 0 0.0 2.0 69 69
r 0.447667 0 1 cbr 500 ------- 0 0.0 2.0 67 67
+ 0.447667 1 2 cbr 500 ------- 0 0.0 2.0 67 67
d 0.447667 1 2 cbr 500 ------- 0 0.0 2.0 67 67
- 0.448604 1 2 cbr 500 ------- 0 0.0 2.0 61 61
+ 0.45 0 1 cbr 500 ------- 0 0.0 2.0 70 70
- 0.45 0 1 cbr 500 ------- 0 0.0 2.0 70 70
r 0.450792 1 2 cbr 500 ------- 0 0.0 2.0 58 58
r 0.452667 0 1 cbr 500 ------- 0 0.0 2.0 68 68
+ 0.452667 1 2 cbr 500 ------- 0 0.0 2.0 68 68
+ 0.455 0 1 cbr 500 ------- 0 0.0 2.0 71 71
- 0.455 0 1 cbr 500 ------- 0 0.0 2.0 71 71
- 0.456417 1 2 cbr 500 ------- 0 0.0 2.0 63 63
r 0.457667 0 1 cbr 500 ------- 0 0.0 2.0 69 69
+ 0.457667 1 2 cbr 500 ------- 0 0.0 2.0 69 69
r 0.458604 1 2 cbr 500 ------- 0 0.0 2.0 60 60
+ 0.46 0 1 cbr 500 ------- 0 0.0 2.0 72 72
- 0.46 0 1 cbr 500 ------- 0 0.0 2.0 72 72
r 0.462667 0 1 cbr 500 ------- 0 0.0 2.0 70 70
+ 0.462667 1 2 cbr 500 ------- 0 0.0 2.0 70 70
d 0.462667 1 2 cbr 500 ------- 0 0.0 2.0 70 70
- 0.464229 1 2 cbr 500 ------- 0 0.0 2.0 65 65
+ 0.465 0 1 cbr 500 ------- 0 0.0 2.0 73 73
- 0.465 0 1 cbr 500 ------- 0 0.0 2.0 73 73
r 0.466417 1 2 cbr 500 ------- 0 0.0 2.0 61 61
r 0.467667 0 1 cbr 500 ------- 0 0.0 2.0 71 71
+ 0.467667 1 2 cbr 500 ------- 0 0.0 2.0 71 71
+ 0.47 0 1 cbr 500 ------- 0 0.0 2.0 74 74
- 0.47 0 1 cbr 500 ------- 0 0.0 2.0 74 74
- 0.472042 1 2 cbr 500 ------- 0 0.0 2.0 66 66
r 0.472667 0 1 cbr 500 ------- 0 0.0 2.0 72 72
+ 0.472667 1 2 cbr 500 ------- 0 0.0 2.0 72 72
r 0.474229 1 2 cbr 500 ------- 0 0.0 2.0 63 63
+ 0.475 0 1 cbr 500 ------- 0 0.0 2.0 75 75
- 0.475 0 1 cbr 500 ------- 0 0.0 2.0 75 75
r 0.477667 0 1 cbr 500 ------- 0 0.0 2.0 73 73
+ 0.477667 1 2 cbr 500 ------- 0 0.0 2.0 73 73
d 0.477667 1 2 cbr 500 ------- 0 0.0 2.0 73 73
- 0.479854 1 2 cbr 500 ------- 0 0.0 2.0 68 68
+ 0.48 0 1 cbr 500 ------- 0 0.0 2.0 76 76
- 0.48 0 1 cbr 500 ------- 0 0.0 2.0 76 76
r 0.482042 1 2 cbr 500 ------- 0 0.0 2.0 65 65
r 0.482667 0 1 cbr 500 ------- 0 0.0 2.0 74 74
+ 0.482667 1 2 cbr 500 ------- 0 0.0 2.0 74 74
+ 0.485 0 1 cbr 500 ------- 0 0.0 2.0 77 77
- 0.485 0 1 cbr 500 ------- 0 0.0 2.0 77 77
- 0.487667 1 2 cbr 500 ------- 0 0.0 2.0 69 69
r 0.487667 0 1 cbr 500 ------- 0 0.0 2.0 75 75
+ 0.487667 1 2 cbr 500 ------- 0 0.0 2.0 75 75
r 0.489854 1 2 cbr 500 ------- 0 0.0 2.0 66 66
+ 0.49 0 1 cbr 500 ------- 0 0.0 2.0 78 78
- 0.49 0 1 cbr 500 ------- 0 0.0 2.0 78 78
r 0.492667 0 1 cbr 500 ------- 0 0.0 2.0 76 76
+ 0.492667 1 2 cbr 500 ------- 0 0.0 2.0 76 76
d 0.492667 1 2 cbr 500 ------- 0 0.0 2.0 76 76
+ 0.495 0 1 cbr 500 ------- 0 0.0 2.0 79 79
- 0.495 0 1 cbr 500 ------- 0 0.0 2.0 79 79
- 0.495479 1 2 cbr 500 ------- 0 0.0 2.0 71 71
r 0.497667 1 2 cbr 500 ------- 0 0.0 2.0 68 68
r 0.497667 0 1 cbr 500 ------- 0 0.0 2.0 77 77
+ 0.497667 1 2 cbr 500 ------- 0 0.0 2.0 77 77
+ 0.5 0 1 cbr 500 ------- 0 0.0 2.0 80 80
- 0.5 0 1 cbr 500 ------- 0 0.0 2.0 80 80
r 0.502667 0 1 cbr 500 ------- 0 0.0 2.0 78 78
+ 0.502667 1 2 cbr 500 ------- 0 0.0 2.0 78 78
d 0.502667 1 2 cbr 500 ------- 0 0.0 2.0 78 78
- 0.503292 1 2 cbr 500 ------- 0 0.0 2.0 72 72
+ 0.505 0 1 cbr 500 ------- 0 0.0 2.0 81 81
- 0.505 0 1 cbr 500 ------- 0 0.0 2.0 81 81
r 0.505479 1 2 cbr 500 ------- 0 0.0 2.0 69 69
r 0.507667 0 1 cbr 500 ------- 0 0.0 2.0 79 79
+ 0.507667 1 2 cbr 500 ------- 0 0.0 2.0 79 79
+ 0.51 0 1 cbr 500 ------- 0 0.0 2.0 82 82
- 0.51 0 1 cbr 500 ------- 0 0.0 2.0 82 82
- 0.511104 1 2 cbr 500 ------- 0 0.0 2.0 74 74
r 0.512667 0 1 cbr 500 ------- 0 0.0 2.0 80 80
+ 0.512667 1 2 cbr 500 ------- 0 0.0 2.0 80 80
r 0.513292 1 2 cbr 500 ------- 0 0.0 2.0 71 71
+ 0.515 0 1 cbr 500 ------- 0 0.0 2.0 83 83
- 0.515 0 1 cbr 500 ------- 0 0.0 2.0 83 83
r 0.517667 0 1 cbr 500 ------- 0 0.0 2.0 81 81
+ 0.517667 1 2 cbr 500 ------- 0 0.0 2.0 81 81
d 0.517667 1 2 cbr 500 ------- 0 0.0 2.0 81 81
- 0.518917 1 2 cbr 500 ------- 0 0.0 2.0 75 75
+ 0.52 0 1 cbr 500 ------- 0 0.0 2.0 84 84
- 0.52 0 1 cbr 500 ------- 0 0.0 2.0 84 84
r 0.521104 1 2 cbr 500 ------- 0 0.0 2.0 72 72
r 0.522667 0 1 cbr 500 ------- 0 0.0 2.0 82 82
+ 0.522667 1 2 cbr 500 ------- 0 0.0 2.0 82 82
+ 0.525 0 1 cbr 500 ------- 0 0.0 2.0 85 85
- 0.525 0 1 cbr 500 ------- 0 0.0 2.0 85 85
- 0.526729 1 2 cbr 500 ------- 0 0.0 2.0 77 77
r 0.527667 0 1 cbr 500 ------- 0 0.0 2.0 83 83
+ 0.527667 1 2 cbr 500 ------- 0 0.0 2.0 83 83
r 0.528917 1 2 cbr 500 ------- 0 0.0 2.0 74 74
+ 0.53 0 1 cbr 500 ------- 0 0.0 2.0 86 86
- 0.53 0 1 cbr 500 ------- 0 0.0 2.0 86 86
r 0.532667 0 1 cbr 500 ------- 0 0.0 2.0 84 84
+ 0.532667 1 2 cbr 500 ------- 0 0.0 2.0 84 84
d 0.532667 1 2 cbr 500 ------- 0 0.0 2.0 84 84
- 0.534542 1 2 cbr 500 ------- 0 0.0 2.0 79 79
+ 0.535 0 1 cbr 500 ------- 0 0.0 2.0 87 87
- 0.535 0 1 cbr 500 ------- 0 0.0 2.0 87 87
r 0.536729 1 2 cbr 500 ------- 0 0.0 2.0 75 75
r 0.537667 0 1 cbr 500 ------- 0 0.0 2.0 85 85
+ 0.537667 1 2 cbr 500 ------- 0 0.0 2.0 85 85
+ 0.54 0 1 cbr 500 ------- 0 0.0 2.0 88 88
- 0.54 0 1 cbr 500 ------- 0 0.0 2.0 88 88
- 0.542354 1 2 cbr 500 ------- 0 0.0 2.0 80 80
r 0.542667 0 1 cbr 500 ------- 0 0.0 2.0 86 86
+ 0.542667 1 2 cbr 500 ------- 0 0.0 2.0 86 86
r 0.544542 1 2 cbr 500 ------- 0 0.0 2.0 77 77
+ 0.545 0 1 cbr 500 ------- 0 0.0 2.0 89 89
- 0.545 0 1 cbr 500 ------- 0 0.0 2.0 89 89
r 0.547667 0 1 cbr 500 ------- 0 0.0 2.0 87 87
+ 0.547667 1 2 cbr 500 ------- 0 0.0 2.0 87 87
d 0.547667 1 2 cbr 500 ------- 0 0.0 2.0 87 87
+ 0.55 0 1 cbr 500 ------- 0 0.0 2.0 90 90
- 0.55 0 1 cbr 500 ------- 0 0.0 2.0 90 90
- 0.550167 1 2 cbr 500 ------- 0 0.0 2.0 82 82
r 0.552354 1 2 cbr 500 ------- 0 0.0 2.0 79 79
r 0.552667 0 1 cbr 500 ------- 0 0.0 2.0 88 88
+ 0.552667 1 2 cbr 500 ------- 0 0.0 2.0 88 88
+ 0.555 0 1 cbr 500 ------- 0 0.0 2.0 91 91
- 0.555 0 1 cbr 500 ------- 0 0.0 2.0 91 91
r 0.557667 0 1 cbr 500 ------- 0 0.0 2.0 89 89
+ 0.557667 1 2 cbr 500 ------- 0 0.0 2.0 89 89
d 0.557667 1 2 cbr 500 ------- 0 0.0 2.0 89 89
- 0.557979 1 2 cbr 500 ------- 0 0.0 2.0 83 83
+ 0.56 0 1 cbr 500 ------- 0 0.0 2.0 92 92
- 0.56 0 1 cbr 500 ------- 0 0.0 2.0 92 92
r 0.560167 1 2 cbr 500 ------- 0 0.0 2.0 80 80
r 0.562667 0 1 cbr 500 ------- 0 0.0 2.0 90 90
+ 0.562667 1 2 cbr 500 ------- 0 0.0 2.0 90 90
+ 0.565 0 1 cbr 500 ------- 0 0.0 2.0 93 93
- 0.565 0 1 cbr 500 ------- 0 0.0 2.0 93 93
- 0.565792 1 2 cbr 500 ------- 0 0.0 2.0 85 85
r 0.567667 0 1 cbr 500 ------- 0 0.0 2.0 91 91
+ 0.567667 1 2 cbr 500 ------- 0 0.0 2.0 91 91
r 0.567979 1 2 cbr 500 ------- 0 0.0 2.0 82 82
+ 0.57 0 1 cbr 500 ------- 0 0.0 2.0 94 94
- 0.57 0 1 cbr 500 ------- 0 0.0 2.0 94 94
r 0.572667 0 1 cbr 500 ------- 0 0.0 2.0 92 92
+ 0.572667 1 2 cbr 500 ------- 0 0.0 2.0 92 92
d 0.572667 1 2 cbr 500 ------- 0 0.0 2.0 92 92
- 0.573604 1 2 cbr 500 ------- 0 0.0 2.0 86 86
+ 0.575 0 1 cbr 500 ------- 0 0.0 2.0 95 95
- 0.575 0 1 cbr 500 ------- 0 0.0 2.0 95 95
r 0.575792 1 2 cbr 500 ------- 0 0.0 2.0 83 83
r 0.577667 0 1 cbr 500 ------- 0 0.0 2.0 93 93
+ 0.577667 1 2 cbr 500 ------- 0 0.0 2.0 93 93
+ 0.58 0 1 cbr 500 ------- 0 0.0 2.0 96 96
- 0.58 0 1 cbr 500 ------- 0 0.0 2.0 96 96
- 0.581417 1 2 cbr 500 ------- 0 0.0 2.0 88 88
r 0.582667 0 1 cbr 500 ------- 0 0.0 2.0 94 94
+ 0.582667 1 2 cbr 500 ------- 0 0.0 2.0 94 94
r 0.583604 1 2 cbr 500 ------- 0 0.0 2.0 85 85
+ 0.585 0 1 cbr 500 ------- 0 0.0 2.0 97 97
- 0.585 0 1 cbr 500 ------- 0 0.0 2.0 97 97
r 0.587667 0 1 cbr 500 ------- 0 0.0 2.0 95 95
+ 0.587667 1 2 cbr 500 ------- 0 0.0 2.0 95 95
d 0.587667 1 2 cbr 500 ------- 0 0.0 2.0 95 95
- 0.589229 1 2 cbr 500 ------- 0 0.0 2.0 90 90
+ 0.59 0 1 cbr 500 ------- 0 0.0 2.0 98 98
- 0.59 0 1 cbr 500 ------- 0 0.0 2.0 98 98
r 0.591417 1 2 cbr 500 ------- 0 0.0 2.0 86 86
r 0.592667 0 1 cbr 500 ------- 0 0.0 2.0 96 96
+ 0.592667 1 2 cbr 500 ------- 0 0.0 2.0 96 96
+ 0.595 0 1 cbr 500 ------- 0 0.0 2.0 99 99
- 0.595 0 1 cbr 500 ------- 0 0.0 2.0 99 99
- 0.597042 1 2 cbr 500 ------- 0 0.0 2.0 91 91
r 0.597667 0 1 cbr 500 ------- 0 0.0 2.0 97 97
+ 0.597667 1 2 cbr 500 ------- 0 0.0 2.0 97 97
r 0.599229 1 2 cbr 500 ------- 0 0.0 2.0 88 88
+ 0.6 0 1 cbr 500 ------- 0 0.0 2.0 100 100
- 0.6 0 1 cbr 500 ------- 0 0.0 2.0 100 100
r 0.602667 0 1 cbr 500 ------- 0 0.0 2.0 98 98
+ 0.602667 1 2 cbr 500 ------- 0 0.0 2.0 98 98
d 0.602667 1 2 cbr 500 ------- 0 0.0 2.0 98 98
- 0.604854 1 2 cbr 500 ------- 0 0.0 2.0 93 93
+ 0.605 0 1 cbr 500 ------- 0 0.0 2.0 101 101
- 0.605 0 1 cbr 500 ------- 0 0.0 2.0 101 101
r 0.607042 1 2 cbr 500 ------- 0 0.0 2.0 90 90
r 0.607667 0 1 cbr 500 ------- 0 0.0 2.0 99 99
+ 0.607667 1 2 cbr 500 ------- 0 0.0 2.0 99 99
+ 0.61 0 1 cbr 500 ------- 0 0.0 2.0 102 102
- 0.61 0 1 cbr 500 ------- 0 0.0 2.0 102 102
- 0.612667 1 2 cbr 500 ------- 0 0.0 2.0 94 94
r 0.612667 0 1 cbr 500 ------- 0 0.0 2.0 100 100
+ 0.612667 1 2 cbr 500 ------- 0 0.0 2.0 100 100
r 0.614854 1 2 cbr 500 ------- 0 0.0 2.0 91 91
+ 0.615 0 1 cbr 500 ------- 0 0.0 2.0 103 103
- 0.615 0 1 cbr 500 ------- 0 0.0 2.0 103 103
r 0.617667 0 1 cbr 500 ------- 0 0.0 2.0 101 101
+ 0.617667 1 2 cbr 500 ------- 0 0.0 2.0 101 101
d 0.617667 1 2 cbr 500 ------- 0 0.0 2.0 101 101
+ 0.62 0 1 cbr 500 ------- 0 0.0 2.0 104 104
- 0.62 0 1 cbr 500 ------- 0 0.0 2.0 104 104
- 0.620479 1 2 cbr 500 ------- 0 0.0 2.0 96 96
r 0.622667 1 2 cbr 500 ------- 0 0.0 2.0 93 93
r 0.622667 0 1 cbr 500 ------- 0 0.0 2.0 102 102
+ 0.622667 1 2 cbr 500 ------- 0 0.0 2.0 102 102
+ 0.625 0 1 cbr 500 ------- 0 0.0 2.0 105 105
- 0.625 0 1 cbr 500 ------- 0 0.0 2.0 105 105
r 0.627667 0 1 cbr 500 ------- 0 0.0 2.0 103 103
+ 0.627667 1 2 cbr 500 ------- 0 0.0 2.0 103 103
d 0.627667 1 2 cbr 500 ------- 0 0.0 2.0 103 103
- 0.628292 1 2 cbr 500 ------- 0 0.0 2.0 97 97
+ 0.63 0 1 cbr 500 ------- 0 0.0 2.0 106 106
- 0.63 0 1 cbr 500 ------- 0 0.0 2.0 106 106
r 0.630479 1 2 cbr 500 ------- 0 0.0 2.0 94 94
r 0.632667 0 1 cbr 500 ------- 0 0.0 2.0 104 104
+ 0.632667 1 2 cbr 500 ------- 0 0.0 2.0 104 104
+ 0.635 0 1 cbr 500 ------- 0 0.0 2.0 107 107
- 0.635 0 1 cbr 500 ------- 0 0.0 2.0 107 107
- 0.636104 1 2 cbr 500 ------- 0 0.0 2.0 99 99
r 0.637667 0 1 cbr 500 ------- 0 0.0 2.0 105 105
+ 0.637667 1 2 cbr 500 ------- 0 0.0 2.0 105 105
r 0.638292 1 2 cbr 500 ------- 0 0.0 2.0 96 96
+ 0.64 0 1 cbr 500 ------- 0 0.0 2.0 108 108
- 0.64 0 1 cbr 500 ------- 0 0.0 2.0 108 108
r 0.642667 0 1 cbr 500 ------- 0 0.0 2.0 106 106
+ 0.642667 1 2 cbr 500 ------- 0 0.0 2.0 106 106
d 0.642667 1 2 cbr 500 ------- 0 0.0 2.0 106 106
- 0.643917 1 2 cbr 500 ------- 0 0.0 2.0 100 100
+ 0.645 0 1 cbr 500 ------- 0 0.0 2.0 109 109
- 0.645 0 1 cbr 500 ------- 0 0.0 2.0 109 109
r 0.646104 1 2 cbr 500 ------- 0 0.0 2.0 97 97
r 0.647667 0 1 cbr 500 ------- 0 0.0 2.0 107 107
+ 0.647667 1 2 cbr 500 ------- 0 0.0 2.0 107 107
+ 0.65 0 1 cbr 500 ------- 0 0.0 2.0 110 110
- 0.65 0 1 cbr 500 ------- 0 0.0 2.0 110 110
- 0.651729 1 2 cbr 500 ------- 0 0.0 2.0 102 102
r 0.652667 0 1 cbr 500 ------- 0 0.0 2.0 108 108
+ 0.652667 1 2 cbr 500 ------- 0 0.0 2.0 108 108
r 0.653917 1 2 cbr 500 ------- 0 0.0 2.0 99 99
+ 0.655 0 1 cbr 500 ------- 0 0.0 2.0 111 111
- 0.655 0 1 cbr 500 ------- 0 0.0 2.0 111 111
r 0.657667 0 1 cbr 500 ------- 0 0.0 2.0 109 109
+ 0.657667 1 2 cbr 500 ------- 0 0.0 2.0 109 109
d 0.657667 1 2 cbr 500 ------- 0 0.0 2.0 109 109
- 0.659542 1 2 cbr 500 ------- 0 0.0 2.0 104 104
+ 0.66 0 1 cbr 500 ------- 0 0.0 2.0 112 112
- 0.66 0 1 cbr 500 ------- 0 0.0 2.0 112 112
r 0.661729 1 2 cbr 500 ------- 0 0.0 2.0 100 100
r 0.662667 0 1 cbr 500 ------- 0 0.0 2.0 110 110
+ 0.662667 1 2 cbr 500 ------- 0 0.0 2.0 110 110
+ 0.665 0 1 cbr 500 ------- 0 0.0 2.0 113 113
- 0.665 0 1 cbr 500 ------- 0 0.0 2.0 113 113
- 0.667354 1 2 cbr 500 ------- 0 0.0 2.0 105 105
r 0.667667 0 1 cbr 500 ------- 0 0.0 2.0 111 111
+ 0.667667 1 2 cbr 500 ------- 0 0.0 2.0 111 111
r 0.669542 1 2 cbr 500 ------- 0 0.0 2.0 102 102
+ 0.67 0 1 cbr 500 ------- 0 0.0 2.0 114 114
- 0.67 0 1 cbr 500 ------- 0 0.0 2.0 114 114
r 0.672667 0 1 cbr 500 ------- 0 0.0 2.0 112 112
+ 0.672667 1 2 cbr 500 ------- 0 0.0 2.0 112 112
d 0.672667 1 2 cbr 500 ------- 0 0.0 2.0 112 112
+ 0.675 0 1 cbr 500 ------- 0 0.0 2.0 115 115
- 0.675 0 1 cbr 500 ------- 0 0.0 2.0 115 115
- 0.675167 1 2 cbr 500 ------- 0 0.0 2.0 107 107
r 0.677354 1 2 cbr 500 ------- 0 0.0 2.0 104 104
r 0.677667 0 1 cbr 500 ------- 0 0.0 2.0 113 113
+ 0.677667 1 2 cbr 500 ------- 0 0.0 2.0 113 113
+ 0.68 0 1 cbr 500 ------- 0 0.0 2.0 116 116
- 0.68 0 1 cbr 500 ------- 0 0.0 2.0 116 116
r 0.682667 0 1 cbr 500 ------- 0 0.0 2.0 114 114
+ 0.682667 1 2 cbr 500 ------- 0 0.0 2.0 114 114
d 0.682667 1 2 cbr 500 ------- 0 0.0 2.0 114 114
- 0.682979 1 2 cbr 500 ------- 0 0.0 2.0 108 108
+ 0.685 0 1 cbr 500 ------- 0 0.0 2.0 117 117
- 0.685 0 1 cbr 500 ------- 0 0.0 2.0 117 117
r 0.685167 1 2 cbr 500 ------- 0 0.0 2.0 105 105
r 0.687667 0 1 cbr 500 ------- 0 0.0 2.0 115 115
+ 0.687667 1 2 cbr 500 ------- 0 0.0 2.0 115 115
+ 0.69 0 1 cbr 500 ------- 0 0.0 2.0 118 118
- 0.69 0 1 cbr 500 ------- 0 0.0 2.0 118 118
- 0.690792 1 2 cbr 500 ------- 0 0.0 2.0 110 110