V -t * -v 1.0a5 -a 0
A -t * -n 1 -p 0 -o 0x7fffffff -c 30 -a 1
A -t * -h 1 -m 1073741823 -s 0
c -t * -i 1 -n Purple
n -t * -a 0 -s 0 -S UP -v circle -c black -i black
n -t * -a 1 -s 1 -S UP -v circle -c black -i black
n -t * -a 2 -s 2 -S UP -v circle -c black -i black
l -t * -s 0 -d 1 -S UP -r 1500000 -D 0.01 -c black
l -t * -s 1 -d 2 -S UP -r 512000 -D 0.01 -c black
+ -t 0.1 -s 0 -d 1 -p cbr -e 500 -c 0 -i 0 -a 0 -x {0.0 2.0 0 ------- null}
- -t 0.1 -s 0 -d 1 -p cbr -e 500 -c 0 -i 0 -a 0 -x {0.0 2.0 0 ------- null}
h -t 0.1 -s 0 -d 1 -p cbr -e 500 -c 0 -i 0 -a 0 -x {0.0 2.0 -1 ------- null}
+ -t 0.105 -s 0 -d 1 -p cbr -e 500 -c 0 -i 1 -a 0 -x {0.0 2.0 1 ------- null}
- -t 0.105 -s 0 -d 1 -p cbr -e 500 -c 0 -i 1 -a 0 -x {0.0 2.0 1 ------- null}
h -t 0.105 -s 0 -d 1 -p cbr -e 500 -c 0 -i 1 -a 0 -x {0.0 2.0 -1 ------- null}
+ -t 0.11 -s 0 -d 1 -p cbr -e 500 -c 0 -i 2 -a 0 -x {0.0 2.0 2 ------- null}
- -t 0.11 -s 0 -d 1 -p cbr -e 500 -c 0 -i 2 -a 0 -x {0.0 2.0 2 ------- null}
h -t 0.11 -s 0 -d 1 -p cbr -e 500 -c 0 -i 2 -a 0 -x {0.0 2.0 -1 ------- null}
r -t 0.112666666666667 -s 0 -d 1 -p cbr -e 500 -c 0 -i 0 -a 0 -x {0.0 2.0 0 ------- null}
+ -t 0.112666666666667 -s 1 -d 2 -p cbr -e 500 -c 0 -i 0 -a 0 -x {0.0 2.0 0 ------- null}
- -t 0.112666666666667 -s 1 -d 2 -p cbr -e 500 -c 0 -i 0 -a 0 -x {0.0 2.0 0 ------- null}
h -t 0.112666666666667 -s 1 -d 2 -p cbr -e 500 -c 0 -i 0 -a 0 -x {0.0 2.0 -1 ------- null}
+ -t 0.115 -s 0 -d 1 -p cbr -e 500 -c 0 -i 3 -a 0 -x {0.0 2.0 3 ------- null}
- -t 0.115 -s 0 -d 1 -p cbr -e 500 -c 0 -i 3 -a 0 -x {0.0 2.0 3 ------- null}
h -t 0.115 -s 0 -d 1 -p cbr -e 500 -c 0 -i 3 -a 0 -x {0.0 2.0 -1 ------- null}
r -t 0.117666666666667 -s 0 -d 1 -p cbr -e 500 -c 0 -i 1 -a 0 -x {0.0 2.0 1 ------- null}
+ -t 0.117666666666667 -s 1 -d 2 -p cbr -e 500 -c 0 -i 1 -a 0 -x {0.0 2.0 1 ------- null}
+ -t 0.12 -s 0 -d 1 -p cbr -e 500 -c 0 -i 4 -a 0 -x {0.0 2.0 4 ------- null}
- -t 0.12 -s 0 -d 1 -p cbr -e 500 -c 0 -i 4 -a 0 -x {0.0 2.0 4 ------- null}
h -t 0.12 -s 0 -d 1 -p cbr -e 500 -c 0 -i 4 -a 0 -x {0.0 2.0 -1 ------- null}
- -t 0.120479166666667 -s 1 -d 2 -p cbr -e 500 -c 0 -i 1 -a 0 -x {0.0 2.0 1 ------- null}
h -t 0.120479166666667 -s 1 -d 2 -p cbr -e 500 -c 0 -i 1 -a 0 -x {0.0 2.0 -1 ------- null}
r -t 0.122666666666667 -s 0 -d 1 -p cbr -e 500 -c 0 -i 2 -a 0 -x {0.0 2.0 2 ------- null}
+ -t 0.122666666666667 -s 1 -d 2 -p cbr -e 500 -c 0 -i 2 -a 0 -x {0.0 2.0 2 ------- null}
+ -t 0.125 -s 0 -d 1 -p cbr -e 500 -c 0 -i 5 -a 0 -x {0.0 2.0 5 ------- null}
- -t 0.125 -s 0 -d 1 -p cbr -e 500 -c 0 -i 5 -a 0 -x {0.0 2.0 5 ------- null}
h -t 0.125 -s 0 -d 1 -p cbr -e 500 -c 0 -i 5 -a 0 -x {0.0 2.0 -1 ------- null}
r -t 0.127666666666667 -s 0 -d 1 -p cbr -e 500 -c 0 -i 3 -a 0 -x {0.0 2.0 3 ------- null}
+ -t 0.127666666666667 -s 1 -d 2 -p cbr -e 500 -c 0 -i 3 -a 0 -x {0.0 2.0 3 ------- null}
- -t 0.128291666666667 -s 1 -d 2 -p cbr -e 500 -c 0 -i 2 -a 0 -x {0.0 2.0 2 ------- null}
h -t 0.128291666666667 -s 1 -d 2 -p cbr -e 500 -c 0 -i 2 -a 0 -x {0.0 2.0 -1 ------- null}
+ -t 0.13 -s 0 -d 1 -p cbr -e 500 -c 0 -i 6 -a 0 -x {0.0 2.0 6 ------- null}
- -t 0.13 -s 0 -d 1 -p cbr -e 500 -c 0 -i 6 -a 0 -x {0.0 2.0 6 ------- null}
h -t 0.13 -s 0 -d 1 -p cbr -e 500 -c 0 -i 6 -a 0 -x {0.0 2.0 -1 ------- null}
r -t 0.130479166666667 -s 1 -d 2 -p cbr -e 500 -c 0 -i 0 -a 0 -x {0.0 2.0 0 ------- null}
r -t 0.132666666666667 -s 0 -d 1 -p cbr -e 500 -c 0 -i 4 -a 0 -x {0.0 2.0 4 ------- null}
+ -t 0.132666666666667 -s 1 -d 2 -p cbr -e 500 -c 0 -i 4 -a 0 -x {0.0 2.0 4 ------- null}
+ -t 0.135 -s 0 -d 1 -p cbr -e 500 -c 0 -i 7 -a 0 -x {0.0 2.0 7 ------- null}
- -t 0.135 -s 0 -d 1 -p cbr -e 500 -c 0 -i 7 -a 0 -x {0.0 2.0 7 ------- null}
h -t 0.135 -s 0 -d 1 -p cbr -e 500 -c 0 -i 7 -a 0 -x {0.0 2.0 -1 ------- null}
- -t 0.136104166666667 -s 1 -d 2 -p cbr -e 500 -c 0 -i 3 -a 0 -x {0.0 2.0 3 ------- null}
h -t 0.136104166666667 -s 1 -d 2 -p cbr -e 500 -c 0 -i 3 -a 0 -x {0.0 2.0 -1 ------- null}
r -t 0.137666666666667 -s 0 -d 1 -p cbr -e 500 -c 0 -i 5 -a 0 -x {0.0 2.0 5 ------- null}
+ -t 0.137666666666667 -s 1 -d 2 -p cbr -e 500 -c 0 -i 5 -a 0 -x {0.0 2.0 5 ------- null}
r -t 0.138291666666667 -s 1 -d 2 -p cbr -e 500 -c 0 -i 1 -a 0 -x {0.0 2.0 1 ------- null}
+ -t 0.14 -s 0 -d 1 -p cbr -e 500 -c 0 -i 8 -a 0 -x {0.0 2.0 8 ------- null}
- -t 0.14 -s 0 -d 1 -p cbr -e 500 -c 0 -i 8 -a 0 -x {0.0 2.0 8 ------- null}
h -t 0.14 -s 0 -d 1 -p cbr -e 500 -c 0 -i 8 -a 0 -x {0.0 2.0 -1 ------- null}
r -t 0.142666666666667 -s 0 -d 1 -p cbr -e 500 -c 0 -i 6 -a 0 -x {0.0 2.0 6 ------- null}
+ -t 0.142666666666667 -s 1 -d 2 -p cbr -e 500 -c 0 -i 6 -a 0 -x {0.0 2.0 6 ------- null}
- -t 0.143916666666667 -s 1 -d 2 -p cbr -e 500 -c 0 -i 4 -a 0 -x {0.0 2.0 4 ------- null}
h -t 0.143916666666667 -s 1 -d 2 -p cbr -e 500 -c 0 -i 4 -a 0 -x {0.0 2.0 -1 ------- null}
+ -t 0.145 -s 0 -d 1 -p cbr -e 500 -c 0 -i 9 -a 0 -x {0.0 2.0 9 ------- null}
- -t 0.145 -s 0 -d 1 -p cbr -e 500 -c 0 -i 9 -a 0 -x {0.0 2.0 9 ------- null}
h -t 0.145 -s 0 -d 1 -p cbr -e 500 -c 0 -i 9 -a 0 -x {0.0 2.0 -1 ------- null}
r -t 0.146104166666667 -s 1 -d 2 -p cbr -e 500 -c 0 -i 2 -a 0 -x {0.0 2.0 2 ------- null}
r -t 0.147666666666667 -s 0 -d 1 -p cbr -e 500 -c 0 -i 7 -a 0 -x {0.0 2.0 7 ------- null}
+ -t 0.147666666666667 -s 1 -d 2 -p cbr -e 500 -c 0 -i 7 -a 0 -x {0.0 2.0 7 ------- null}
+ -t 0.15 -s 0 -d 1 -p cbr -e 500 -c 0 -i 10 -a 0 -x {0.0 2.0 10 ------- null}
- -t 0.15 -s 0 -d 1 -p cbr -e 500 -c 0 -i 10 -a 0 -x {0.0 2.0 10 ------- null}
h -t 0.15 -s 0 -d 1 -p cbr -e 500 -c 0 -i 10 -a 0 -x {0.0 2.0 -1 ------- null}
- -t 0.151729166666667 -s 1 -d 2 -p cbr -e 500 -c 0 -i 5 -a 0 -x {0.0 2.0 5 ------- null}
h -t 0.151729166666667 -s 1 -d 2 -p cbr -e 500 -c 0 -i 5 -a 0 -x {0.0 2.0 -1 ------- null}
r -t 0.152666666666667 -s 0 -d 1 -p cbr -e 500 -c 0 -i 8 -a 0 -x {0.0 2.0 8 ------- null}
+ -t 0.152666666666667 -s 1 -d 2 -p cbr -e 500 -c 0 -i 8 -a 0 -x {0.0 2.0 8 ------- null}
r -t 0.153916666666667 -s 1 -d 2 -p cbr -e 500 -c 0 -i 3 -a 0 -x {0.0 2.0 3 ------- null}
+ -t 0.155 -s 0 -d 1 -p cbr -e 500 -c 0 -i 11 -a 0 -x {0.0 2.0 11 ------- null}
- -t 0.155 -s 0 -d 1 -p cbr -e 500 -c 0 -i 11 -a 0 -x {0.0 2.0 11 ------- null}
h -t 0.155 -s 0 -d 1 -p cbr -e 500 -c 0 -i 11 -a 0 -x {0.0 2.0 -1 ------- null}
r -t 0.157666666666667 -s 0 -d 1 -p cbr -e 500 -c 0 -i 9 -a 0 -x {0.0 2.0 9 ------- null}
+ -t 0.157666666666667 -s 1 -d 2 -p cbr -e 500 -c 0 -i 9 -a 0 -x {0.0 2.0 9 ------- null}
- -t 0.159541666666667 -s 1 -d 2 -p cbr -e 500 -c 0 -i 6 -a 0 -x {0.0 2.0 6 ------- null}
h -t 0.159541666666667 -s 1 -d 2 -p cbr -e 500 -c 0 -i 6 -a 0 -x {0.0 2.0 -1 ------- null}
+ -t 0.16 -s 0 -d 1 -p cbr -e 500 -c 0 -i 12 -a 0 -x {0.0 2.0 12 ------- null}
- -t 0.16 -s 0 -d 1 -p cbr -e 500 -c 0 -i 12 -a 0 -x {0.0 2.0 12 ------- null}
h -t 0.16 -s 0 -d 1 -p cbr -e 500 -c 0 -i 12 -a 0 -x {0.0 2.0 -1 ------- null}
r -t 0.161729166666667 -s 1 -d 2 -p cbr -e 500 -c 0 -i 4 -a 0 -x {0.0 2.0 4 ------- null}
r -t 0.162666666666667 -s 0 -d 1 -p cbr -e 500 -c 0 -i 10 -a 0 -x {0.0 2.0 10 ------- null}
+ -t 0.162666666666667 -s 1 -d 2 -p cbr -e 500 -c 0 -i 10 -a 0 -x {0.0 2.0 10 ------- null}
+ -t 0.165 -s 0 -d 1 -p cbr -e 500 -c 0 -i 13 -a 0 -x {0.0 2.0 13 ------- null}
- -t 0.165 -s 0 -d 1 -p cbr -e 500 -c 0 -i 13 -a 0 -x {0.0 2.0 13 ------- null}
h -t 0.165 -s 0 -d 1 -p cbr -e 500 -c 0 -i 13 -a 0 -x {0.0 2.0 -1 ------- null}
- -t 0.167354166666667 -s 1 -d 2 -p cbr -e 500 -c 0 -i 7 -a 0 -x {0.0 2.0 7 ------- null}
h -t 0.167354166666667 -s 1 -d 2 -p cbr -e 500 -c 0 -i 7 -a 0 -x {0.0 2.0 -1 ------- null}
r -t 0.167666666666667 -s 0 -d 1 -p cbr -e 500 -c 0 -i 11 -a 0 -x {0.0 2.0 11 ------- null}
+ -t 0.167666666666667 -s 1 -d 2 -p cbr -e 500 -c 0 -i 11 -a 0 -x {0.0 2.0 11 ------- null}
r -t 0.169541666666667 -s 1 -d 2 -p cbr -e 500 -c 0 -i 5 -a 0 -x {0.0 2.0 5 ------- null}
+ -t 0.17 -s 0 -d 1 -p cbr -e 500 -c 0 -i 14 -a 0 -x {0.0 2.0 14 ------- null}
- -t 0.17 -s 0 -d 1 -p cbr -e 500 -c 0 -i 14 -a 0 -x {0.0 2.0 14 ------- null}
h -t 0.17 -s 0 -d 1 -p cbr -e 500 -c 0 -i 14 -a 0 -x {0.0 2.0 -1 ------- null}
r -t 0.172666666666667 -s 0 -d 1 -p cbr -e 500 -c 0 -i 12 -a 0 -x {0.0 2.0 12 ------- null}
+ -t 0.172666666666667 -s 1 -d 2 -p cbr -e 500 -c 0 -i 12 -a 0 -x {0.0 2.0 12 ------- null}
d -t 0.172666666666667 -s 1 -d 2 -p cbr -e 500 -c 0 -i 12 -a 0 -x {0.0 2.0 12 ------- null}
+ -t 0.175 -s 0 -d 1 -p cbr -e 500 -c 0 -i 15 -a 0 -x {0.0 2.0 15 ------- null}
- -t 0.175 -s 0 -d 1 -p cbr -e 500 -c 0 -i 15 -a 0 -x {0.0 2.0 15 ------- null}
h -t 0.175 -s 0 -d 1 -p cbr -e 500 -c 0 -i 15 -a 0 -x {0.0 2.0 -1 ------- null}
- -t 0.175166666666667 -s 1 -d 2 -p cbr -e 500 -c 0 -i 8 -a 0 -x {0.0 2.0 8 ------- null}
h -t 0.175166666666667 -s 1 -d 2 -p cbr -e 500 -c 0 -i 8 -a 0 -x {0.0 2.0 -1 ------- null}
r -t 0.177354166666667 -s 1 -d 2 -p cbr -e 500 -c 0 -i 6 -a 0 -x {0.0 2.0 6 ------- null}
r -t 0.177666666666667 -s 0 -d 1 -p cbr -e 500 -c 0 -i 13 -a 0 -x {0.0 2.0 13 ------- null}
+ -t 0.177666666666667 -s 1 -d 2 -p cbr -e 500 -c 0 -i 13 -a 0 -x {0.0 2.0 13 ------- null}
+ -t 0.18 -s 0 -d 1 -p cbr -e 500 -c 0 -i 16 -a 0 -x {0.0 2.0 16 ------- null}
- -t 0.18 -s 0 -d 1 -p cbr -e 500 -c 0 -i 16 -a 0 -x {0.0 2.0 16 ------- null}
h -t 0.18 -s 0 -d 1 -p cbr -e 500 -c 0 -i 16 -a 0 -x {0.0 2.0 -1 ------- null}
r -t 0.182666666666667 -s 0 -d 1 -p cbr -e 500 -c 0 -i 14 -a 0 -x {0.0 2.0 14 ------- null}
+ -t 0.182666666666667 -s 1 -d 2 -p cbr -e 500 -c 0 -i 14 -a 0 -x {0.0 2.0 14 ------- null}
d -t 0.182666666666667 -s 1 -d 2 -p cbr -e 500 -c 0 -i 14 -a 0 -x {0.0 2.0 14 ------- null}
- -t 0.182979166666667 -s 1 -d 2 -p cbr -e 500 -c 0 -i 9 -a 0 -x {0.0 2.0 9 ------- null}
h -t 0.182979166666667 -s 1 -d 2 -p cbr -e 500 -c 0 -i 9 -a 0 -x {0.0 2.0 -1 ------- null}
+ -t 0.185 -s 0 -d 1 -p cbr -e 500 -c 0 -i 17 -a 0 -x {0.0 2.0 17 ------- null}
- -t 0.185 -s 0 -d 1 -p cbr -e 500 -c 0 -i 17 -a 0 -x {0.0 2.0 17 ------- null}
h -t 0.185 -s 0 -d 1 -p cbr -e 500 -c 0 -i 17 -a 0 -x {0.0 2.0 -1 ------- null}
r -t 0.185166666666667 -s 1 -d 2 -p cbr -e 500 -c 0 -i 7 -a 0 -x {0.0 2.0 7 ------- null}
r -t 0.187666666666667 -s 0 -d 1 -p cbr -e 500 -c 0 -i 15 -a 0 -x {0.0 2.0 15 ------- null}
+ -t 0.187666666666667 -s 1 -d 2 -p cbr -e 500 -c 0 -i 15 -a 0 -x {0.0 2.0 15 ------- null}
+ -t 0.19 -s 0 -d 1 -p cbr -e 500 -c 0 -i 18 -a 0 -x {0.0 2.0 18 ------- null}
- -t 0.19 -s 0 -d 1 -p cbr -e 500 -c 0 -i 18 -a 0 -x {0.0 2.0 18 ------- null}
h -t 0.19 -s 0 -d 1 -p cbr -e 500 -c 0 -i 18 -a 0 -x {0.0 2.0 -1 ------- null}
- -t 0.190791666666667 -s 1 -d 2 -p cbr -e 500 -c 0 -i 10 -a 0 -x {0.0 2.0 10 ------- null}
h -t 0.190791666666667 -s 1 -d 2 -p cbr -e 500 -c 0 -i 10 -a 0 -x {0.0 2.0 -1 ------- null}
r -t 0.192666666666667 -s 0 -d 1 -p cbr -e 500 -c 0 -i 16 -a 0 -x {0.0 2.0 16 ------- null}
+ -t 0.192666666666667 -s 1 -d 2 -p cbr -e 500 -c 0 -i 16 -a 0 -x {0.0 2.0 16 ------- null}
r -t 0.192979166666667 -s 1 -d 2 -p cbr -e 500 -c 0 -i 8 -a 0 -x {0.0 2.0 8 ------- null}
+ -t 0.195 -s 0 -d 1 -p cbr -e 500 -c 0 -i 19 -a 0 -x {0.0 2.0 19 ------- null}
- -t 0.195 -s 0 -d 1 -p cbr -e 500 -c 0 -i 19 -a 0 -x {0.0 2.0 19 ------- null}
h -t 0.195 -s 0 -d 1 -p cbr -e 500 -c 0 -i 19 -a 0 -x {0.0 2.0 -1 ------- null}
r -t 0.197666666666667 -s 0 -d 1 -p cbr -e 500 -c 0 -i 17 -a 0 -x {0.0 2.0 17 ------- null}
+ -t 0.197666666666667 -s 1 -d 2 -p cbr -e 500 -c 0 -i 17 -a 0 -x {0.0 2.0 17 ------- null}
d -t 0.197666666666667 -s 1 -d 2 -p cbr -e 500 -c 0 -i 17 -a 0 -x {0.0 2.0 17 ------- null}
- -t 0.198604166666667 -s 1 -d 2 -p cbr -e 500 -c 0 -i 11 -a 0 -x {0.0 2.0 11 ------- null}
h -t 0.198604166666667 -s 1 -d 2 -p cbr -e 500 -c 0 -i 11 -a 0 -x {0.0 2.0 -1 ------- null}
+ -t 0.2 -s 0 -d 1 -p cbr -e 500 -c 0 -i 20 -a 0 -x {0.0 2.0 20 ------- null}
- -t 0.2 -s 0 -d 1 -p cbr -e 500 -c 0 -i 20 -a 0 -x {0.0 2.0 20 ------- null}
h -t 0.2 -s 0 -d 1 -p cbr -e 500 -c 0 -i 20 -a 0 -x {0.0 2.0 -1 ------- null}
r -t 0.200791666666667 -s 1 -d 2 -p cbr -e 500 -c 0 -i 9 -a 0 -x {0.0 2.0 9 ------- null}
r -t 0.202666666666667 -s 0 -d 1 -p cbr -e 500 -c 0 -i 18 -a 0 -x {0.0 2.0 18 ------- null}
+ -t 0.202666666666667 -s 1 -d 2 -p cbr -e 500 -c 0 -i 18 -a 0 -x {0.0 2.0 18 ------- null}
+ -t 0.205 -s 0 -d 1 -p cbr -e 500 -c 0 -i 21 -a 0 -x {0.0 2.0 21 ------- null}
- -t 0.205 -s 0 -d 1 -p cbr -e 500 -c 0 -i 21 -a 0 -x {0.0 2.0 21 ------- null}
h -t 0.205 -s 0 -d 1 -p cbr -e 500 -c 0 -i 21 -a 0 -x {0.0 2.0 -1 ------- null}
- -t 0.206416666666667 -s 1 -d 2 -p cbr -e 500 -c 0 -i 13 -a 0 -x {0.0 2.0 13 ------- null}
h -t 0.206416666666667 -s 1 -d 2 -p cbr -e 500 -c 0 -i 13 -a 0 -x {0.0 2.0 -1 ------- null}
r -t 0.207666666666667 -s 0 -d 1 -p cbr -e 500 -c 0 -i 19 -a 0 -x {0.0 2.0 19 ------- null}
+ -t 0.207666666666667 -s 1 -d 2 -p cbr -e 500 -c 0 -i 19 -a 0 -x {0.0 2.0 19 ------- null}
r -t 0.208604166666667 -s 1 -d 2 -p cbr -e 500 -c 0 -i 10 -a 0 -x {0.0 2.0 10 ------- null}
+ -t 0.21 -s 0 -d 1 -p cbr -e 500 -c 0 -i 22 -a 0 -x {0.0 2.0 22 ------- null}
- -t 0.21 -s 0 -d 1 -p cbr -e 500 -c 0 -i 22 -a 0 -x {0.0 2.0 22 ------- null}
h -t 0.21 -s 0 -d 1 -p cbr -e 500 -c 0 -i 22 -a 0 -x {0.0 2.0 -1 ------- null}
r -t 0.212666666666667 -s 0 -d 1 -p cbr -e 500 -c 0 -i 20 -a 0 -x {0.0 2.0 20 ------- null}
+ -t 0.212666666666667 -s 1 -d 2 -p cbr -e 500 -c 0 -i 20 -a 0 -x {0.0 2.0 20 ------- null}
d -t 0.212666666666667 -s 1 -d 2 -p cbr -e 500 -c 0 -i 20 -a 0 -x {0.0 2.0 20 ------- null}
- -t 0.214229166666667 -s 1 -d 2 -p cbr -e 500 -c 0 -i 15 -a 0 -x {0.0 2.0 15 ------- null}
h -t 0.214229166666667 -s 1 -d 2 -p cbr -e 500 -c 0 -i 15 -a 0 -x {0.0 2.0 -1 ------- null}
+ -t 0.215 -s 0 -d 1 -p cbr -e 500 -c 0 -i 23 -a 0 -x {0.0 2.0 23 ------- null}
- -t 0.215 -s 0 -d 1 -p cbr -e 500 -c 0 -i 23 -a 0 -x {0.0 2.0 23 ------- null}
h -t 0.215 -s 0 -d 1 -p cbr -e 500 -c 0 -i 23 -a 0 -x {0.0 2.0 -1 ------- null}
r -t 0.216416666666667 -s 1 -d 2 -p cbr -e 500 -c 0 -i 11 -a 0 -x {0.0 2.0 11 ------- null}
r -t 0.217666666666667 -s 0 -d 1 -p cbr -e 500 -c 0 -i 21 -a 0 -x {0.0 2.0 21 ------- null}
+ -t 0.217666666666667 -s 1 -d 2 -p cbr -e 500 -c 0 -i 21 -a 0 -x {0.0 2.0 21 ------- null}
+ -t 0.22 -s 0 -d 1 -p cbr -e 500 -c 0 -i 24 -a 0 -x {0.0 2.0 24 ------- null}
- -t 0.22 -s 0 -d 1 -p cbr -e 500 -c 0 -i 24 -a 0 -x {0.0 2.0 24 ------- null}
h -t 0.22 -s 0 -d 1 -p cbr -e 500 -c 0 -i 24 -a 0 -x {0.0 2.0 -1 ------- null}
- -t 0.222041666666667 -s 1 -d 2 -p cbr -e 500 -c 0 -i 16 -a 0 -x {0.0 2.0 16 ------- null}
h -t 0.222041666666667 -s 1 -d 2 -p cbr -e 500 -c 0 -i 16 -a 0 -x {0.0 2.0 -1 ------- null}
r -t 0.222666666666667 -s 0 -d 1 -p cbr -e 500 -c 0 -i 22 -a 0 -x {0.0 2.0 22 ------- null}
+ -t 0.222666666666667 -s 1 -d 2 -p cbr -e 500 -c 0 -i 22 -a 0 -x {0.0 2.0 22 ------- null}
r -t 0.224229166666667 -s 1 -d 2 -p cbr -e 500 -c 0 -i 13 -a 0 -x {0.0 2.0 13 ------- null}
+ -t 0.225 -s 0 -d 1 -p cbr -e 500 -c 0 -i 25 -a 0 -x {0.0 2.0 25 ------- null}
- -t 0.225 -s 0 -d 1 -p cbr -e 500 -c 0 -i 25 -a 0 -x {0.0 2.0 25 ------- null}
h -t 0.225 -s 0 -d 1 -p cbr -e 500 -c 0 -i 25 -a 0 -x {0.0 2.0 -1 ------- null}
r -t 0.227666666666667 -s 0 -d 1 -p cbr -e 500 -c 0 -i 23 -a 0 -x {0.0 2.0 23 ------- null}
+ -t 0.227666666666667 -s 1 -d 2 -p cbr -e 500 -c 0 -i 23 -a 0 -x {0.0 2.0 23 ------- null}
d -t 0.227666666666667 -s 1 -d 2 -p cbr -e 500 -c 0 -i 23 -a 0 -x {0.0 2.0 23 ------- null}
- -t 0.229854166666667 -s 1 -d 2 -p cbr -e 500 -c 0 -i 18 -a 0 -x {0.0 2.0 18 ------- null}
h -t 0.229854166666667 -s 1 -d 2 -p cbr -e 500 -c 0 -i 18 -a 0 -x {0.0 2.0 -1 ------- null}
+ -t 0.23 -s 0 -d 1 -p cbr -e 500 -c 0 -i 26 -a 0 -x {0.0 2.0 26 ------- null}
- -t 0.23 -s 0 -d 1 -p cbr -e 500 -c 0 -i 26 -a 0 -x {0.0 2.0 26 ------- null}
h -t 0.23 -s 0 -d 1 -p cbr -e 500 -c 0 -i 26 -a 0 -x {0.0 2.0 -1 ------- null}
r -t 0.232041666666667 -s 1 -d 2 -p cbr -e 500 -c 0 -i 15 -a 0 -x {0.0 2.0 15 ------- null}
r -t 0.232666666666667 -s 0 -d 1 -p cbr -e 500 -c 0 -i 24 -a 0 -x {0.0 2.0 24 ------- null}
+ -t 0.232666666666667 -s 1 -d 2 -p cbr -e 500 -c 0 -i 24 -a 0 -x {0.0 2.0 24 ------- null}
+ -t 0.235 -s 0 -d 1 -p cbr -e 500 -c 0 -i 27 -a 0 -x {0.0 2.0 27 ------- null}
- -t 0.235 -s 0 -d 1 -p cbr -e 500 -c 0 -i 27 -a 0 -x {0.0 2.0 27 ------- null}
h -t 0.235 -s 0 -d 1 -p cbr -e 500 -c 0 -i 27 -a 0 -x {0.0 2.0 -1 ------- null}
- -t 0.237666666666667 -s 1 -d 2 -p cbr -e 500 -c 0 -i 19 -a 0 -x {0.0 2.0 19 ------- null}
h -t 0.237666666666667 -s 1 -d 2 -p cbr -e 500 -c 0 -i 19 -a 0 -x {0.0 2.0 -1 ------- null}
r -t 0.237666666666667 -s 0 -d 1 -p cbr -e 500 -c 0 -i 25 -a 0 -x {0.0 2.0 25 ------- null}
+ -t 0.237666666666667 -s 1 -d 2 -p cbr -e 500 -c 0 -i 25 -a 0 -x {0.0 2.0 25 ------- null}
r -t 0.239854166666667 -s 1 -d 2 -p cbr -e 500 -c 0 -i 16 -a 0 -x {0.0 2.0 16 ------- null}
+ -t 0.24 -s 0 -d 1 -p cbr -e 500 -c 0 -i 28 -a 0 -x {0.0 2.0 28 ------- null}
- -t 0.24 -s 0 -d 1 -p cbr -e 500 -c 0 -i 28 -a 0 -x {0.0 2.0 28 ------- null}
h -t 0.24 -s 0 -d 1 -p cbr -e 500 -c 0 -i 28 -a 0 -x {0.0 2.0 -1 ------- null}
r -t 0.242666666666667 -s 0 -d 1 -p cbr -e 500 -c 0 -i 26 -a 0 -x {0.0 2.0 26 ------- null}
+ -t 0.242666666666667 -s 1 -d 2 -p cbr -e 500 -c 0 -i 26 -a 0 -x {0.0 2.0 26 ------- null}
d -t 0.242666666666667 -s 1 -d 2 -p cbr -e 500 -c 0 -i 26 -a 0 -x {0.0 2.0 26 ------- null}
+ -t 0.245 -s 0 -d 1 -p cbr -e 500 -c 0 -i 29 -a 0 -x {0.0 2.0 29 ------- null}
- -t 0.245 -s 0 -d 1 -p cbr -e 500 -c 0 -i 29 -a 0 -x {0.0 2.0 29 ------- null}
h -t 0.245 -s 0 -d 1 -p cbr -e 500 -c 0 -i 29 -a 0 -x {0.0 2.0 -1 ------- null}
- -t 0.245479166666667 -s 1 -d 2 -p cbr -e 500 -c 0 -i 21 -a 0 -x {0.0 2.0 21 ------- null}
h -t 0.245479166666667 -s 1 -d 2 -p cbr -e 500 -c 0 -i 21 -a 0 -x {0.0 2.0 -1 ------- null}
r -t 0.247666666666667 -s 1 -d 2 -p cbr -e 500 -c 0 -i 18 -a 0 -x {0.0 2.0 18 ------- null}
r -t 0.247666666666667 -s 0 -d 1 -p cbr -e 500 -c 0 -i 27 -a 0 -x {0.0 2.0 27 ------- null}
+ -t 0.247666666666667 -s 1 -d 2 -p cbr -e 500 -c 0 -i 27 -a 0 -x {0.0 2.0 27 ------- null}
+ -t 0.25 -s 0 -d 1 -p cbr -e 500 -c 0 -i 30 -a 0 -x {0.0 2.0 30 ------- null}
- -t 0.25 -s 0 -d 1 -p cbr -e 500 -c 0 -i 30 -a 0 -x {0.0 2.0 30 ------- null}
h -t 0.25 -s 0 -d 1 -p cbr -e 500 -c 0 -i 30 -a 0 -x {0.0 2.0 -1 ------- null}
r -t 0.252666666666667 -s 0 -d 1 -p cbr -e 500 -c 0 -i 28 -a 0 -x {0.0 2.0 28 ------- null}
+ -t 0.252666666666667 -s 1 -d 2 -p cbr -e 500 -c 0 -i 28 -a 0 -x {0.0 2.0 28 ------- null}
d -t 0.252666666666667 -s 1 -d 2 -p cbr -e 500 -c 0 -i 28 -a 0 -x {0.0 2.0 28 ------- null}
- -t 0.253291666666667 -s 1 -d 2 -p cbr -e 500 -c 0 -i 22 -a 0 -x {0.0 2.0 22 ------- null}
h -t 0.253291666666667 -s 1 -d 2 -p cbr -e 500 -c 0 -i 22 -a 0 -x {0.0 2.0 -1 ------- null}
+ -t 0.255 -s 0 -d 1 -p cbr -e 500 -c 0 -i 31 -a 0 -x {0.0 2.0 31 ------- null}
- -t 0.255 -s 0 -d 1 -p cbr -e 500 -c 0 -i 31 -a 0 -x {0.0 2.0 31 ------- null}
h -t 0.255 -s 0 -d 1 -p cbr -e 500 -c 0 -i 31 -a 0 -x {0.0 2.0 -1 ------- null}
r -t 0.255479166666667 -s 1 -d 2 -p cbr -e 500 -c 0 -i 19 -a 0 -x {0.0 2.0 19 ------- null}
r -t 0.257666666666667 -s 0 -d 1 -p cbr -e 500 -c 0 -i 29 -a 0 -x {0.0 2.0 29 ------- null}
+ -t 0.257666666666667 -s 1 -d 2 -p cbr -e 500 -c 0 -i 29 -a 0 -x {0.0 2.0 29 ------- null}
+ -t 0.26 -s 0 -d 1 -p cbr -e 500 -c 0 -i 32 -a 0 -x {0.0 2.0 32 ------- null}
- -t 0.26 -s 0 -d 1 -p cbr -e 500 -c 0 -i 32 -a 0 -x {0.0 2.0 32 ------- null}
h -t 0.26 -s 0 -d 1 -p cbr -e 500 -c 0 -i 32 -a 0 -x {0.0 2.0 -1 ------- null}
- -t 0.261104166666667 -s 1 -d 2 -p cbr -e 500 -c 0 -i 24 -a 0 -x {0.0 2.0 24 ------- null}
h -t 0.261104166666667 -s 1 -d 2 -p cbr -e 500 -c 0 -i 24 -a 0 -x {0.0 2.0 -1 ------- null}
r -t 0.262666666666667 -s 0 -d 1 -p cbr -e 500 -c 0 -i 30 -a 0 -x {0.0 2.0 30 ------- null}
+ -t 0.262666666666667 -s 1 -d 2 -p cbr -e 500 -c 0 -i 30 -a 0 -x {0.0 2.0 30 ------- null}
r -t 0.263291666666667 -s 1 -d 2 -p cbr -e 500 -c 0 -i 21 -a 0 -x {0.0 2.0 21 ------- null}
+ -t 0.265 -s 0 -d 1 -p cbr -e 500 -c 0 -i 33 -a 0 -x {0.0 2.0 33 ------- null}
- -t 0.265 -s 0 -d 1 -p cbr -e 500 -c 0 -i 33 -a 0 -x {0.0 2.0 33 ------- null}
h -t 0.265 -s 0 -d 1 -p cbr -e 500 -c 0 -i 33 -a 0 -x {0.0 2.0 -1 ------- null}
r -t 0.267666666666667 -s 0 -d 1 -p cbr -e 500 -c 0 -i 31 -a 0 -x {0.0 2.0 31 ------- null}
+ -t 0.267666666666667 -s 1 -d 2 -p cbr -e 500 -c 0 -i 31 -a 0 -x {0.0 2.0 31 ------- null}
d -t 0.267666666666667 -s 1 -d 2 -p cbr -e 500 -c 0 -i 31 -a 0 -x {0.0 2.0 31 ------- null}
- -t 0.268916666666667 -s 1 -d 2 -p cbr -e 500 -c 0 -i 25 -a 0 -x {0.0 2.0 25 ------- null}
h -t 0.268916666666667 -s 1 -d 2 -p cbr -e 500 -c 0 -i 25 -a 0 -x {0.0 2.0 -1 ------- null}
+ -t 0.27 -s 0 -d 1 -p cbr -e 500 -c 0 -i 34 -a 0 -x {0.0 2.0 34 ------- null}
- -t 0.27 -s 0 -d 1 -p cbr -e 500 -c 0 -i 34 -a 0 -x {0.0 2.0 34 ------- null}
h -t 0.27 -s 0 -d 1 -p cbr -e 500 -c 0 -i 34 -a 0 -x {0.0 2.0 -1 ------- null}
r -t 0.271104166666667 -s 1 -d 2 -p cbr -e 500 -c 0 -i 22 -a 0 -x {0.0 2.0 22 ------- null}
r -t 0.272666666666667 -s 0 -d 1 -p cbr -e 500 -c 0 -i 32 -a 0 -x {0.0 2.0 32 ------- null}
+ -t 0.272666666666667 -s 1 -d 2 -p cbr -e 500 -c 0 -i 32 -a 0 -x {0.0 2.0 32 ------- null}
+ -t 0.275 -s 0 -d 1 -p cbr -e 500 -c 0 -i 35 -a 0 -x {0.0 2.0 35 ------- null}
- -t 0.275 -s 0 -d 1 -p cbr -e 500 -c 0 -i 35 -a 0 -x {0.0 2.0 35 ------- null}
h -t 0.275 -s 0 -d 1 -p cbr -e 500 -c 0 -i 35 -a 0 -x {0.0 2.0 -1 ------- null}
- -t 0.276729166666667 -s 1 -d 2 -p cbr -e 500 -c 0 -i 27 -a 0 -x {0.0 2.0 27 ------- null}
h -t 0.276729166666667 -s 1 -d 2 -p cbr -e 500 -c 0 -i 27 -a 0 -x {0.0 2.0 -1 ------- null}
r -t 0.277666666666667 -s 0 -d 1 -p cbr -e 500 -c 0 -i 33 -a 0 -x {0.0 2.0 33 ------- null}
+ -t 0.277666666666667 -s 1 -d 2 -p cbr -e 500 -c 0 -i 33 -a 0 -x {0.0 2.0 33 ------- null}
r -t 0.278916666666667 -s 1 -d 2 -p cbr -e 500 -c 0 -i 24 -a 0 -x {0.0 2.0 24 ------- null}
+ -t 0.28 -s 0 -d 1 -p cbr -e 500 -c 0 -i 36 -a 0 -x {0.0 2.0 36 ------- null}
- -t 0.28 -s 0 -d 1 -p cbr -e 500 -c 0 -i 36 -a 0 -x {0.0 2.0 36 ------- null}
h -t 0.28 -s 0 -d 1 -p cbr -e 500 -c 0 -i 36 -a 0 -x {0.0 2.0 -1 ------- null}
r -t 0.282666666666667 -s 0 -d 1 -p cbr -e 500 -c 0 -i 34 -a 0 -x {0.0 2.0 34 ------- null}
+ -t 0.282666666666667 -s 1 -d 2 -p cbr -e 500 -c 0 -i 34 -a 0 -x {0.0 2.0 34 ------- null}
d -t 0.282666666666667 -s 1 -d 2 -p cbr -e 500 -c 0 -i 34 -a 0 -x {0.0 2.0 34 ------- null}
- -t 0.284541666666667 -s 1 -d 2 -p cbr -e 500 -c 0 -i 29 -a 0 -x {0.0 2.0 29 ------- null}
h -t 0.284541666666667 -s 1 -d 2 -p cbr -e 500 -c 0 -i 29 -a 0 -x {0.0 2.0 -1 ------- null}
+ -t 0.285 -s 0 -d 1 -p cbr -e 500 -c 0 -i 37 -a 0 -x {0.0 2.0 37 ------- null}
- -t 0.285 -s 0 -d 1 -p cbr -e 500 -c 0 -i 37 -a 0 -x {0.0 2.0 37 ------- null}
h -t 0.285 -s 0 -d 1 -p cbr -e 500 -c 0 -i 37 -a 0 -x {0.0 2.0 -1 ------- null}
r -t 0.286729166666667 -s 1 -d 2 -p cbr -e 500 -c 0 -i 25 -a 0 -x {0.0 2.0 25 ------- null}
r -t 0.287666666666667 -s 0 -d 1 -p cbr -e 500 -c 0 -i 35 -a 0 -x {0.0 2.0 35 ------- null}
+ -t 0.287666666666667 -s 1 -d 2 -p cbr -e 500 -c 0 -i 35 -a 0 -x {0.0 2.0 35 ------- null}
+ -t 0.29 -s 0 -d 1 -p cbr -e 500 -c 0 -i 38 -a 0 -x {0.0 2.0 38 ------- null}
- -t 0.29 -s 0 -d 1 -p cbr -e 500 -c 0 -i 38 -a 0 -x {0.0 2.0 38 ------- null}
h -t 0.29 -s 0 -d 1 -p cbr -e 500 -c 0 -i 38 -a 0 -x {0.0 2.0 -1 ------- null}
- -t 0.292354166666667 -s 1 -d 2 -p cbr -e 500 -c 0 -i 30 -a 0 -x {0.0 2.0 30 ------- null}
h -t 0.292354166666667 -s 1 -d 2 -p cbr -e 500 -c 0 -i 30 -a 0 -x {0.0 2.0 -1 ------- null}
r -t 0.292666666666667 -s 0 -d 1 -p cbr -e 500 -c 0 -i 36 -a 0 -x {0.0 2.0 36 ------- null}
+ -t 0.292666666666667 -s 1 -d 2 -p cbr -e 500 -c 0 -i 36 -a 0 -x {0.0 2.0 36 ------- null}
r -t 0.294541666666667 -s 1 -d 2 -p cbr -e 500 -c 0 -i 27 -a 0 -x {0.0 2.0 27 ------- null}
+ -t 0.295 -s 0 -d 1 -p cbr -e 500 -c 0 -i 39 -a 0 -x {0.0 2.0 39 ------- null}
- -t 0.295 -s 0 -d 1 -p cbr -e 500 -c 0 -i 39 -a 0 -x {0.0 2.0 39 ------- null}
h -t 0.295 -s 0 -d 1 -p cbr -e 500 -c 0 -i 39 -a 0 -x {0.0 2.0 -1 ------- null}
r -t 0.297666666666667 -s 0 -d 1 -p cbr -e 500 -c 0 -i 37 -a 0 -x {0.0 2.0 37 ------- null}
+ -t 0.297666666666667 -s 1 -d 2 -p cbr -e 500 -c 0 -i 37 -a 0 -x {0.0 2.0 37 ------- null}
d -t 0.297666666666667 -s 1 -d 2 -p cbr -e 500 -c 0 -i 37 -a 0 -x {0.0 2.0 37 ------- null}
+ -t 0.3 -s 0 -d 1 -p cbr -e 500 -c 0 -i 40 -a 0 -x {0.0 2.0 40 ------- null}
- -t 0.3 -s 0 -d 1 -p cbr -e 500 -c 0 -i 40 -a 0 -x {0.0 2.0 40 ------- null}
h -t 0.3 -s 0 -d 1 -p cbr -e 500 -c 0 -i 40 -a 0 -x {0.0 2.0 -1 ------- null}
- -t 0.300166666666667 -s 1 -d 2 -p cbr -e 500 -c 0 -i 32 -a 0 -x {0.0 2.0 32 ------- null}
h -t 0.300166666666667 -s 1 -d 2 -p cbr -e 500 -c 0 -i 32 -a 0 -x {0.0 2.0 -1 ------- null}
r -t 0.302354166666667 -s 1 -d 2 -p cbr -e 500 -c 0 -i 29 -a 0 -x {0.0 2.0 29 ------- null}
r -t 0.302666666666667 -s 0 -d 1 -p cbr -e 500 -c 0 -i 38 -a 0 -x {0.0 2.0 38 ------- null}
+ -t 0.302666666666667 -s 1 -d 2 -p cbr -e 500 -c 0 -i 38 -a 0 -x {0.0 2.0 38 ------- null}
+ -t 0.305 -s 0 -d 1 -p cbr -e 500 -c 0 -i 41 -a 0 -x {0.0 2.0 41 ------- null}
- -t 0.305 -s 0 -d 1 -p cbr -e 500 -c 0 -i 41 -a 0 -x {0.0 2.0 41 ------- null}
h -t 0.305 -s 0 -d 1 -p cbr -e 500 -c 0 -i 41 -a 0 -x {0.0 2.0 -1 ------- null}
r -t 0.307666666666667 -s 0 -d 1 -p cbr -e 500 -c 0 -i 39 -a 0 -x {0.0 2.0 39 ------- null}
+ -t 0.307666666666667 -s 1 -d 2 -p cbr -e 500 -c 0 -i 39 -a 0 -x {0.0 2.0 39 ------- null}
d -t 0.307666666666667 -s 1 -d 2 -p cbr -e 500 -c 0 -i 39 -a 0 -x {0.0 2.0 39 ------- null}
- -t 0.307979166666667 -s 1 -d 2 -p cbr -e 500 -c 0 -i 33 -a 0 -x {0.0 2.0 33 ------- null}
h -t 0.307979166666667 -s 1 -d 2 -p cbr -e 500 -c 0 -i 33 -a 0 -x {0.0 2.0 -1 ------- null}
+ -t 0.31 -s 0 -d 1 -p cbr -e 500 -c 0 -i 42 -a 0 -x {0.0 2.0 42 ------- null}
- -t 0.31 -s 0 -d 1 -p cbr -e 500 -c 0 -i 42 -a 0 -x {0.0 2.0 42 ------- null}
h -t 0.31 -s 0 -d 1 -p cbr -e 500 -c 0 -i 42 -a 0 -x {0.0 2.0 -1 ------- null}
r -t 0.310166666666667 -s 1 -d 2 -p cbr -e 500 -c 0 -i 30 -a 0 -x {0.0 2.0 30 ------- null}
r -t 0.312666666666667 -s 0 -d 1 -p cbr -e 500 -c 0 -i 40 -a 0 -x {0.0 2.0 40 ------- null}
+ -t 0.312666666666667 -s 1 -d 2 -p cbr -e 500 -c 0 -i 40 -a 0 -x {0.0 2.0 40 ------- null}
+ -t 0.315 -s 0 -d 1 -p cbr -e 500 -c 0 -i 43 -a 0 -x {0.0 2.0 43 ------- null}
- -t 0.315 -s 0 -d 1 -p cbr -e 500 -c 0 -i 43 -a 0 -x {0.0 2.0 43 ------- null}
h -t 0.315 -s 0 -d 1 -p cbr -e 500 -c 0 -i 43 -a 0 -x {0.0 2.0 -1 ------- null}
- -t 0.315791666666667 -s 1 -d 2 -p cbr -e 500 -c 0 -i 35 -a 0 -x {0.0 2.0 35 ------- null}
h -t 0.315791666666667 -s 1 -d 2 -p cbr -e 500 -c 0 -i 35 -a 0 -x {0.0 2.0 -1 ------- null}
r -t 0.317666666666667 -s 0 -d 1 -p cbr -e 500 -c 0 -i 41 -a 0 -x {0.0 2.0 41 ------- null}
+ -t 0.317666666666667 -s 1 -d 2 -p cbr -e 500 -c 0 -i 41 -a 0 -x {0.0 2.0 41 ------- null}
r -t 0.317979166666667 -s 1 -d 2 -p cbr -e 500 -c 0 -i 32 -a 0 -x {0.0 2.0 32 ------- null}
+ -t 0.32 -s 0 -d 1 -p cbr -e 500 -c 0 -i 44 -a 0 -x {0.0 2.0 44 ------- null}
- -t 0.32 -s 0 -d 1 -p cbr -e 500 -c 0 -i 44 -a 0 -x {0.0 2.0 44 ------- null}
h -t 0.32 -s 0 -d 1 -p cbr -e 500 -c 0 -i 44 -a 0 -x {0.0 2.0 -1 ------- null}
r -t 0.322666666666667 -s 0 -d 1 -p cbr -e 500 -c 0 -i 42 -a 0 -x {0.0 2.0 42 ------- null}
+ -t 0.322666666666667 -s 1 -d 2 -p cbr -e 500 -c 0 -i 42 -a 0 -x {0.0 2.0 42 ------- null}
d -t 0.322666666666667 -s 1 -d 2 -p cbr -e 500 -c 0 -i 42 -a 0 -x {0.0 2.0 42 ------- null}
- -t 0.323604166666667 -s 1 -d 2 -p cbr -e 500 -c 0 -i 36 -a 0 -x {0.0 2.0 36 ------- null}
h -t 0.323604166666667 -s 1 -d 2 -p cbr -e 500 -c 0 -i 36 -a 0 -x {0.0 2.0 -1 ------- null}
+ -t 0.325 -s 0 -d 1 -p cbr -e 500 -c 0 -i 45 -a 0 -x {0.0 2.0 45 ------- null}
- -t 0.325 -s 0 -d 1 -p cbr -e 500 -c 0 -i 45 -a 0 -x {0.0 2.0 45 ------- null}
h -t 0.325 -s 0 -d 1 -p cbr -e 500 -c 0 -i 45 -a 0 -x {0.0 2.0 -1 ------- null}
r -t 0.325791666666667 -s 1 -d 2 -p cbr -e 500 -c 0 -i 33 -a 0 -x {0.0 2.0 33 ------- null}
r -t 0.327666666666667 -s 0 -d 1 -p cbr -e 500 -c 0 -i 43 -a 0 -x {0.0 2.0 43 ------- null}
+ -t 0.327666666666667 -s 1 -d 2 -p cbr -e 500 -c 0 -i 43 -a 0 -x {0.0 2.0 43 ------- null}
+ -t 0.33 -s 0 -d 1 -p cbr -e 500 -c 0 -i 46 -a 0 -x {0.0 2.0 46 ------- null}
- -t 0.33 -s 0 -d 1 -p cbr -e 500 -c 0 -i 46 -a 0 -x {0.0 2.0 46 ------- null}
h -t 0.33 -s 0 -d 1 -p cbr -e 500 -c 0 -i 46 -a 0 -x {0.0 2.0 -1 ------- null}
- -t 0.331416666666667 -s 1 -d 2 -p cbr -e 500 -c 0 -i 38 -a 0 -x {0.0 2.0 38 ------- null}
h -t 0.331416666666667 -s 1 -d 2 -p cbr -e 500 -c 0 -i 38 -a 0 -x {0.0 2.0 -1 ------- null}
r -t 0.332666666666667 -s 0 -d 1 -p cbr -e 500 -c 0 -i 44 -a 0 -x {0.0 2.0 44 ------- null}
+ -t 0.332666666666667 -s 1 -d 2 -p cbr -e 500 -c 0 -i 44 -a 0 -x {0.0 2.0 44 ------- null}
r -t 0.333604166666667 -s 1 -d 2 -p cbr -e 500 -c 0 -i 35 -a 0 -x {0.0 2.0 35 ------- null}
+ -t 0.335 -s 0 -d 1 -p cbr -e 500 -c 0 -i 47 -a 0 -x {0.0 2.0 47 ------- null}
- -t 0.335 -s 0 -d 1 -p cbr -e 500 -c 0 -i 47 -a 0 -x {0.0 2.0 47 ------- null}
h -t 0.335 -s 0 -d 1 -p cbr -e 500 -c 0 -i 47 -a 0 -x {0.0 2.0 -1 ------- null}
r -t 0.337666666666667 -s 0 -d 1 -p cbr -e 500 -c 0 -i 45 -a 0 -x {0.0 2.0 45 ------- null}
+ -t 0.337666666666667 -s 1 -d 2 -p cbr -e 500 -c 0 -i 45 -a 0 -x {0.0 2.0 45 ------- null}
d -t 0.337666666666667 -s 1 -d 2 -p cbr -e 500 -c 0 -i 45 -a 0 -x {0.0 2.0 45 ------- null}
- -t 0.339229166666667 -s 1 -d 2 -p cbr -e 500 -c 0 -i 40 -a 0 -x {0.0 2.0 40 ------- null}
h -t 0.339229166666667 -s 1 -d 2 -p cbr -e 500 -c 0 -i 40 -a 0 -x {0.0 2.0 -1 ------- null}
+ -t 0.34 -s 0 -d 1 -p cbr -e 500 -c 0 -i 48 -a 0 -x {0.0 2.0 48 ------- null}
- -t 0.34 -s 0 -d 1 -p cbr -e 500 -c 0 -i 48 -a 0 -x {0.0 2.0 48 ------- null}
h -t 0.34 -s 0 -d 1 -p cbr -e 500 -c 0 -i 48 -a 0 -x {0.0 2.0 -1 ------- null}
r -t 0.341416666666667 -s 1 -d 2 -p cbr -e 500 -c 0 -i 36 -a 0 -x {0.0 2.0 36 ------- null}
r -t 0.342666666666667 -s 0 -d 1 -p cbr -e 500 -c 0 -i 46 -a 0 -x {0.0 2.0 46 ------- null}
+ -t 0.342666666666667 -s 1 -d 2 -p cbr -e 500 -c 0 -i 46 -a 0 -x {0.0 2.0 46 ------- null}
+ -t 0.345 -s 0 -d 1 -p cbr -e 500 -c 0 -i 49 -a 0 -x {0.0 2.0 49 ------- null}