+ 0.1 0 4 ping 50000 ------- 0 0.0 5.0 -1 0
- 0.1 0 4 ping 50000 ------- 0 0.0 5.0 -1 0
+ 0.1 2 4 ping 30000 ------- 0 2.0 3.0 -1 1
- 0.1 2 4 ping 30000 ------- 0 2.0 3.0 -1 1
r 0.1018 0 4 ping 50000 ------- 0 0.0 5.0 -1 0
+ 0.1018 4 5 ping 50000 ------- 0 0.0 5.0 -1 0
- 0.1018 4 5 ping 50000 ------- 0 0.0 5.0 -1 0
r 0.1318 4 5 ping 50000 ------- 0 0.0 5.0 -1 0
+ 0.1318 5 4 ping 64 ------- 0 5.0 0.0 -1 2
- 0.1318 5 4 ping 64 ------- 0 5.0 0.0 -1 2
r 0.151813 5 4 ping 64 ------- 0 5.0 0.0 -1 2
+ 0.151813 4 0 ping 64 ------- 0 5.0 0.0 -1 2
- 0.151813 4 0 ping 64 ------- 0 5.0 0.0 -1 2
r 0.152814 4 0 ping 64 ------- 0 5.0 0.0 -1 2
+ 0.2 0 4 ping 50000 ------- 0 0.0 5.0 -1 3
- 0.2 0 4 ping 50000 ------- 0 0.0 5.0 -1 3
+ 0.2 2 4 ping 30000 ------- 0 2.0 3.0 -1 4
r 0.2018 0 4 ping 50000 ------- 0 0.0 5.0 -1 3
+ 0.2018 4 5 ping 50000 ------- 0 0.0 5.0 -1 3
- 0.2018 4 5 ping 50000 ------- 0 0.0 5.0 -1 3
r 0.2318 4 5 ping 50000 ------- 0 0.0 5.0 -1 3
+ 0.2318 5 4 ping 64 ------- 0 5.0 0.0 -1 5
- 0.2318 5 4 ping 64 ------- 0 5.0 0.0 -1 5
r 0.251813 5 4 ping 64 ------- 0 5.0 0.0 -1 5
+ 0.251813 4 0 ping 64 ------- 0 5.0 0.0 -1 5
- 0.251813 4 0 ping 64 ------- 0 5.0 0.0 -1 5
r 0.252814 4 0 ping 64 ------- 0 5.0 0.0 -1 5
+ 0.3 0 4 ping 50000 ------- 0 0.0 5.0 -1 6
- 0.3 0 4 ping 50000 ------- 0 0.0 5.0 -1 6
+ 0.3 2 4 ping 30000 ------- 0 2.0 3.0 -1 7
r 0.3018 0 4 ping 50000 ------- 0 0.0 5.0 -1 6
+ 0.3018 4 5 ping 50000 ------- 0 0.0 5.0 -1 6
- 0.3018 4 5 ping 50000 ------- 0 0.0 5.0 -1 6
r 0.3318 4 5 ping 50000 ------- 0 0.0 5.0 -1 6
+ 0.3318 5 4 ping 64 ------- 0 5.0 0.0 -1 8
- 0.3318 5 4 ping 64 ------- 0 5.0 0.0 -1 8
r 0.351813 5 4 ping 64 ------- 0 5.0 0.0 -1 8
+ 0.351813 4 0 ping 64 ------- 0 5.0 0.0 -1 8
- 0.351813 4 0 ping 64 ------- 0 5.0 0.0 -1 8
r 0.352814 4 0 ping 64 ------- 0 5.0 0.0 -1 8
+ 0.4 0 4 ping 50000 ------- 0 0.0 5.0 -1 9
- 0.4 0 4 ping 50000 ------- 0 0.0 5.0 -1 9
+ 0.4 2 4 ping 30000 ------- 0 2.0 3.0 -1 10
d 0.4 2 4 ping 30000 ------- 0 2.0 3.0 -1 10
r 0.4018 0 4 ping 50000 ------- 0 0.0 5.0 -1 9
+ 0.4018 4 5 ping 50000 ------- 0 0.0 5.0 -1 9
- 0.4018 4 5 ping 50000 ------- 0 0.0 5.0 -1 9
r 0.4318 4 5 ping 50000 ------- 0 0.0 5.0 -1 9
+ 0.4318 5 4 ping 64 ------- 0 5.0 0.0 -1 11
- 0.4318 5 4 ping 64 ------- 0 5.0 0.0 -1 11
r 0.451813 5 4 ping 64 ------- 0 5.0 0.0 -1 11
+ 0.451813 4 0 ping 64 ------- 0 5.0 0.0 -1 11
- 0.451813 4 0 ping 64 ------- 0 5.0 0.0 -1 11
r 0.452814 4 0 ping 64 ------- 0 5.0 0.0 -1 11
+ 0.5 0 4 ping 50000 ------- 0 0.0 5.0 -1 12
- 0.5 0 4 ping 50000 ------- 0 0.0 5.0 -1 12
+ 0.5 2 4 ping 30000 ------- 0 2.0 3.0 -1 13
d 0.5 2 4 ping 30000 ------- 0 2.0 3.0 -1 13
r 0.5018 0 4 ping 50000 ------- 0 0.0 5.0 -1 12
+ 0.5018 4 5 ping 50000 ------- 0 0.0 5.0 -1 12
- 0.5018 4 5 ping 50000 ------- 0 0.0 5.0 -1 12
r 0.5318 4 5 ping 50000 ------- 0 0.0 5.0 -1 12
+ 0.5318 5 4 ping 64 ------- 0 5.0 0.0 -1 14
- 0.5318 5 4 ping 64 ------- 0 5.0 0.0 -1 14
r 0.551813 5 4 ping 64 ------- 0 5.0 0.0 -1 14
+ 0.551813 4 0 ping 64 ------- 0 5.0 0.0 -1 14
- 0.551813 4 0 ping 64 ------- 0 5.0 0.0 -1 14
r 0.552814 4 0 ping 64 ------- 0 5.0 0.0 -1 14
- 0.58 2 4 ping 30000 ------- 0 2.0 3.0 -1 4
r 0.59 2 4 ping 30000 ------- 0 2.0 3.0 -1 1
+ 0.59 4 3 ping 30000 ------- 0 2.0 3.0 -1 1
- 0.59 4 3 ping 30000 ------- 0 2.0 3.0 -1 1
+ 0.6 0 4 ping 50000 ------- 0 0.0 5.0 -1 15
- 0.6 0 4 ping 50000 ------- 0 0.0 5.0 -1 15
+ 0.6 2 4 ping 30000 ------- 0 2.0 3.0 -1 16
r 0.6018 0 4 ping 50000 ------- 0 0.0 5.0 -1 15
+ 0.6018 4 5 ping 50000 ------- 0 0.0 5.0 -1 15
- 0.6018 4 5 ping 50000 ------- 0 0.0 5.0 -1 15
r 0.6318 4 5 ping 50000 ------- 0 0.0 5.0 -1 15
+ 0.6318 5 4 ping 64 ------- 0 5.0 0.0 -1 17
- 0.6318 5 4 ping 64 ------- 0 5.0 0.0 -1 17
r 0.651813 5 4 ping 64 ------- 0 5.0 0.0 -1 17
+ 0.651813 4 0 ping 64 ------- 0 5.0 0.0 -1 17
- 0.651813 4 0 ping 64 ------- 0 5.0 0.0 -1 17
r 0.652814 4 0 ping 64 ------- 0 5.0 0.0 -1 17
+ 0.7 0 4 ping 50000 ------- 0 0.0 5.0 -1 18
- 0.7 0 4 ping 50000 ------- 0 0.0 5.0 -1 18
+ 0.7 2 4 ping 30000 ------- 0 2.0 3.0 -1 19
d 0.7 2 4 ping 30000 ------- 0 2.0 3.0 -1 19
r 0.7018 0 4 ping 50000 ------- 0 0.0 5.0 -1 18
+ 0.7018 4 5 ping 50000 ------- 0 0.0 5.0 -1 18
- 0.7018 4 5 ping 50000 ------- 0 0.0 5.0 -1 18
r 0.7318 4 5 ping 50000 ------- 0 0.0 5.0 -1 18
+ 0.7318 5 4 ping 64 ------- 0 5.0 0.0 -1 20
- 0.7318 5 4 ping 64 ------- 0 5.0 0.0 -1 20
r 0.751813 5 4 ping 64 ------- 0 5.0 0.0 -1 20
+ 0.751813 4 0 ping 64 ------- 0 5.0 0.0 -1 20
- 0.751813 4 0 ping 64 ------- 0 5.0 0.0 -1 20
r 0.752814 4 0 ping 64 ------- 0 5.0 0.0 -1 20
+ 0.8 0 4 ping 50000 ------- 0 0.0 5.0 -1 21
- 0.8 0 4 ping 50000 ------- 0 0.0 5.0 -1 21
+ 0.8 2 4 ping 30000 ------- 0 2.0 3.0 -1 22
d 0.8 2 4 ping 30000 ------- 0 2.0 3.0 -1 22
r 0.8018 0 4 ping 50000 ------- 0 0.0 5.0 -1 21
+ 0.8018 4 5 ping 50000 ------- 0 0.0 5.0 -1 21
- 0.8018 4 5 ping 50000 ------- 0 0.0 5.0 -1 21
r 0.8318 4 5 ping 50000 ------- 0 0.0 5.0 -1 21
+ 0.8318 5 4 ping 64 ------- 0 5.0 0.0 -1 23
- 0.8318 5 4 ping 64 ------- 0 5.0 0.0 -1 23
r 0.851813 5 4 ping 64 ------- 0 5.0 0.0 -1 23
+ 0.851813 4 0 ping 64 ------- 0 5.0 0.0 -1 23
- 0.851813 4 0 ping 64 ------- 0 5.0 0.0 -1 23
r 0.852814 4 0 ping 64 ------- 0 5.0 0.0 -1 23
+ 0.9 0 4 ping 50000 ------- 0 0.0 5.0 -1 24
- 0.9 0 4 ping 50000 ------- 0 0.0 5.0 -1 24
+ 0.9 2 4 ping 30000 ------- 0 2.0 3.0 -1 25
d 0.9 2 4 ping 30000 ------- 0 2.0 3.0 -1 25
r 0.9018 0 4 ping 50000 ------- 0 0.0 5.0 -1 24
+ 0.9018 4 5 ping 50000 ------- 0 0.0 5.0 -1 24
- 0.9018 4 5 ping 50000 ------- 0 0.0 5.0 -1 24
r 0.9318 4 5 ping 50000 ------- 0 0.0 5.0 -1 24
+ 0.9318 5 4 ping 64 ------- 0 5.0 0.0 -1 26
- 0.9318 5 4 ping 64 ------- 0 5.0 0.0 -1 26
r 0.951813 5 4 ping 64 ------- 0 5.0 0.0 -1 26
+ 0.951813 4 0 ping 64 ------- 0 5.0 0.0 -1 26
- 0.951813 4 0 ping 64 ------- 0 5.0 0.0 -1 26
r 0.952814 4 0 ping 64 ------- 0 5.0 0.0 -1 26
+ 1 0 4 ping 50000 ------- 0 0.0 5.0 -1 27
- 1 0 4 ping 50000 ------- 0 0.0 5.0 -1 27
+ 1 2 4 ping 30000 ------- 0 2.0 3.0 -1 28
d 1 2 4 ping 30000 ------- 0 2.0 3.0 -1 28
r 1.0018 0 4 ping 50000 ------- 0 0.0 5.0 -1 27
+ 1.0018 4 5 ping 50000 ------- 0 0.0 5.0 -1 27
- 1.0018 4 5 ping 50000 ------- 0 0.0 5.0 -1 27
r 1.0318 4 5 ping 50000 ------- 0 0.0 5.0 -1 27
+ 1.0318 5 4 ping 64 ------- 0 5.0 0.0 -1 29
- 1.0318 5 4 ping 64 ------- 0 5.0 0.0 -1 29
r 1.051813 5 4 ping 64 ------- 0 5.0 0.0 -1 29
+ 1.051813 4 0 ping 64 ------- 0 5.0 0.0 -1 29
- 1.051813 4 0 ping 64 ------- 0 5.0 0.0 -1 29
r 1.052814 4 0 ping 64 ------- 0 5.0 0.0 -1 29
- 1.06 2 4 ping 30000 ------- 0 2.0 3.0 -1 7
r 1.07 2 4 ping 30000 ------- 0 2.0 3.0 -1 4
+ 1.07 4 3 ping 30000 ------- 0 2.0 3.0 -1 4
+ 1.1 0 4 ping 50000 ------- 0 0.0 5.0 -1 30
- 1.1 0 4 ping 50000 ------- 0 0.0 5.0 -1 30
+ 1.1 2 4 ping 30000 ------- 0 2.0 3.0 -1 31
r 1.1018 0 4 ping 50000 ------- 0 0.0 5.0 -1 30
+ 1.1018 4 5 ping 50000 ------- 0 0.0 5.0 -1 30
- 1.1018 4 5 ping 50000 ------- 0 0.0 5.0 -1 30
r 1.1318 4 5 ping 50000 ------- 0 0.0 5.0 -1 30
+ 1.1318 5 4 ping 64 ------- 0 5.0 0.0 -1 32
- 1.1318 5 4 ping 64 ------- 0 5.0 0.0 -1 32
r 1.151813 5 4 ping 64 ------- 0 5.0 0.0 -1 32
+ 1.151813 4 0 ping 64 ------- 0 5.0 0.0 -1 32
- 1.151813 4 0 ping 64 ------- 0 5.0 0.0 -1 32
r 1.152814 4 0 ping 64 ------- 0 5.0 0.0 -1 32
+ 1.2 0 4 ping 50000 ------- 0 0.0 5.0 -1 33
- 1.2 0 4 ping 50000 ------- 0 0.0 5.0 -1 33
+ 1.2 2 4 ping 30000 ------- 0 2.0 3.0 -1 34
d 1.2 2 4 ping 30000 ------- 0 2.0 3.0 -1 34
r 1.2018 0 4 ping 50000 ------- 0 0.0 5.0 -1 33
+ 1.2018 4 5 ping 50000 ------- 0 0.0 5.0 -1 33
- 1.2018 4 5 ping 50000 ------- 0 0.0 5.0 -1 33
r 1.2318 4 5 ping 50000 ------- 0 0.0 5.0 -1 33
+ 1.2318 5 4 ping 64 ------- 0 5.0 0.0 -1 35
- 1.2318 5 4 ping 64 ------- 0 5.0 0.0 -1 35
r 1.251813 5 4 ping 64 ------- 0 5.0 0.0 -1 35
+ 1.251813 4 0 ping 64 ------- 0 5.0 0.0 -1 35
- 1.251813 4 0 ping 64 ------- 0 5.0 0.0 -1 35
r 1.252814 4 0 ping 64 ------- 0 5.0 0.0 -1 35
+ 1.3 0 4 ping 50000 ------- 0 0.0 5.0 -1 36
- 1.3 0 4 ping 50000 ------- 0 0.0 5.0 -1 36
+ 1.3 2 4 ping 30000 ------- 0 2.0 3.0 -1 37
d 1.3 2 4 ping 30000 ------- 0 2.0 3.0 -1 37
r 1.3018 0 4 ping 50000 ------- 0 0.0 5.0 -1 36
+ 1.3018 4 5 ping 50000 ------- 0 0.0 5.0 -1 36
- 1.3018 4 5 ping 50000 ------- 0 0.0 5.0 -1 36
r 1.3318 4 5 ping 50000 ------- 0 0.0 5.0 -1 36
+ 1.3318 5 4 ping 64 ------- 0 5.0 0.0 -1 38
- 1.3318 5 4 ping 64 ------- 0 5.0 0.0 -1 38
r 1.351813 5 4 ping 64 ------- 0 5.0 0.0 -1 38
+ 1.351813 4 0 ping 64 ------- 0 5.0 0.0 -1 38
- 1.351813 4 0 ping 64 ------- 0 5.0 0.0 -1 38
r 1.352814 4 0 ping 64 ------- 0 5.0 0.0 -1 38
+ 1.4 0 4 ping 50000 ------- 0 0.0 5.0 -1 39
- 1.4 0 4 ping 50000 ------- 0 0.0 5.0 -1 39
+ 1.4 2 4 ping 30000 ------- 0 2.0 3.0 -1 40
d 1.4 2 4 ping 30000 ------- 0 2.0 3.0 -1 40
r 1.4018 0 4 ping 50000 ------- 0 0.0 5.0 -1 39
+ 1.4018 4 5 ping 50000 ------- 0 0.0 5.0 -1 39
- 1.4018 4 5 ping 50000 ------- 0 0.0 5.0 -1 39
r 1.4318 4 5 ping 50000 ------- 0 0.0 5.0 -1 39
+ 1.4318 5 4 ping 64 ------- 0 5.0 0.0 -1 41
- 1.4318 5 4 ping 64 ------- 0 5.0 0.0 -1 41
r 1.451813 5 4 ping 64 ------- 0 5.0 0.0 -1 41
+ 1.451813 4 0 ping 64 ------- 0 5.0 0.0 -1 41
- 1.451813 4 0 ping 64 ------- 0 5.0 0.0 -1 41
r 1.452814 4 0 ping 64 ------- 0 5.0 0.0 -1 41
+ 1.5 0 4 ping 50000 ------- 0 0.0 5.0 -1 42
- 1.5 0 4 ping 50000 ------- 0 0.0 5.0 -1 42
+ 1.5 2 4 ping 30000 ------- 0 2.0 3.0 -1 43
d 1.5 2 4 ping 30000 ------- 0 2.0 3.0 -1 43
r 1.5018 0 4 ping 50000 ------- 0 0.0 5.0 -1 42
+ 1.5018 4 5 ping 50000 ------- 0 0.0 5.0 -1 42
- 1.5018 4 5 ping 50000 ------- 0 0.0 5.0 -1 42
r 1.5318 4 5 ping 50000 ------- 0 0.0 5.0 -1 42
+ 1.5318 5 4 ping 64 ------- 0 5.0 0.0 -1 44
- 1.5318 5 4 ping 64 ------- 0 5.0 0.0 -1 44
- 1.54 2 4 ping 30000 ------- 0 2.0 3.0 -1 16
r 1.55 2 4 ping 30000 ------- 0 2.0 3.0 -1 7
+ 1.55 4 3 ping 30000 ------- 0 2.0 3.0 -1 7
r 1.551813 5 4 ping 64 ------- 0 5.0 0.0 -1 44
+ 1.551813 4 0 ping 64 ------- 0 5.0 0.0 -1 44
- 1.551813 4 0 ping 64 ------- 0 5.0 0.0 -1 44
r 1.552814 4 0 ping 64 ------- 0 5.0 0.0 -1 44
+ 1.6 0 4 ping 50000 ------- 0 0.0 5.0 -1 45
- 1.6 0 4 ping 50000 ------- 0 0.0 5.0 -1 45
+ 1.6 2 4 ping 30000 ------- 0 2.0 3.0 -1 46
r 1.6018 0 4 ping 50000 ------- 0 0.0 5.0 -1 45
+ 1.6018 4 5 ping 50000 ------- 0 0.0 5.0 -1 45
- 1.6018 4 5 ping 50000 ------- 0 0.0 5.0 -1 45
r 1.6318 4 5 ping 50000 ------- 0 0.0 5.0 -1 45
+ 1.6318 5 4 ping 64 ------- 0 5.0 0.0 -1 47
- 1.6318 5 4 ping 64 ------- 0 5.0 0.0 -1 47
r 1.651813 5 4 ping 64 ------- 0 5.0 0.0 -1 47
+ 1.651813 4 0 ping 64 ------- 0 5.0 0.0 -1 47
- 1.651813 4 0 ping 64 ------- 0 5.0 0.0 -1 47
r 1.652814 4 0 ping 64 ------- 0 5.0 0.0 -1 47
+ 1.7 0 4 ping 50000 ------- 0 0.0 5.0 -1 48
- 1.7 0 4 ping 50000 ------- 0 0.0 5.0 -1 48
+ 1.7 2 4 ping 30000 ------- 0 2.0 3.0 -1 49
d 1.7 2 4 ping 30000 ------- 0 2.0 3.0 -1 49
r 1.7018 0 4 ping 50000 ------- 0 0.0 5.0 -1 48
+ 1.7018 4 5 ping 50000 ------- 0 0.0 5.0 -1 48
- 1.7018 4 5 ping 50000 ------- 0 0.0 5.0 -1 48
r 1.7318 4 5 ping 50000 ------- 0 0.0 5.0 -1 48
+ 1.7318 5 4 ping 64 ------- 0 5.0 0.0 -1 50
- 1.7318 5 4 ping 64 ------- 0 5.0 0.0 -1 50
r 1.751813 5 4 ping 64 ------- 0 5.0 0.0 -1 50
+ 1.751813 4 0 ping 64 ------- 0 5.0 0.0 -1 50
- 1.751813 4 0 ping 64 ------- 0 5.0 0.0 -1 50
r 1.752814 4 0 ping 64 ------- 0 5.0 0.0 -1 50
- 1.79 4 3 ping 30000 ------- 0 2.0 3.0 -1 4
r 1.8 4 3 ping 30000 ------- 0 2.0 3.0 -1 1
+ 1.8 3 4 ping 64 ------- 0 3.0 2.0 -1 51
- 1.8 3 4 ping 64 ------- 0 3.0 2.0 -1 51
+ 1.8 0 4 ping 50000 ------- 0 0.0 5.0 -1 52
- 1.8 0 4 ping 50000 ------- 0 0.0 5.0 -1 52
+ 1.8 2 4 ping 30000 ------- 0 2.0 3.0 -1 53
d 1.8 2 4 ping 30000 ------- 0 2.0 3.0 -1 53
r 1.8018 0 4 ping 50000 ------- 0 0.0 5.0 -1 52
+ 1.8018 4 5 ping 50000 ------- 0 0.0 5.0 -1 52
- 1.8018 4 5 ping 50000 ------- 0 0.0 5.0 -1 52
r 1.81256 3 4 ping 64 ------- 0 3.0 2.0 -1 51
+ 1.81256 4 2 ping 64 ------- 0 3.0 2.0 -1 51
- 1.81256 4 2 ping 64 ------- 0 3.0 2.0 -1 51
r 1.823584 4 2 ping 64 ------- 0 3.0 2.0 -1 51
r 1.8318 4 5 ping 50000 ------- 0 0.0 5.0 -1 52
+ 1.8318 5 4 ping 64 ------- 0 5.0 0.0 -1 54
- 1.8318 5 4 ping 64 ------- 0 5.0 0.0 -1 54
r 1.851813 5 4 ping 64 ------- 0 5.0 0.0 -1 54
+ 1.851813 4 0 ping 64 ------- 0 5.0 0.0 -1 54
- 1.851813 4 0 ping 64 ------- 0 5.0 0.0 -1 54
r 1.852814 4 0 ping 64 ------- 0 5.0 0.0 -1 54
+ 1.9 0 4 ping 50000 ------- 0 0.0 5.0 -1 55
- 1.9 0 4 ping 50000 ------- 0 0.0 5.0 -1 55
+ 1.9 2 4 ping 30000 ------- 0 2.0 3.0 -1 56
d 1.9 2 4 ping 30000 ------- 0 2.0 3.0 -1 56
r 1.9018 0 4 ping 50000 ------- 0 0.0 5.0 -1 55
+ 1.9018 4 5 ping 50000 ------- 0 0.0 5.0 -1 55
- 1.9018 4 5 ping 50000 ------- 0 0.0 5.0 -1 55
r 1.9318 4 5 ping 50000 ------- 0 0.0 5.0 -1 55
+ 1.9318 5 4 ping 64 ------- 0 5.0 0.0 -1 57
- 1.9318 5 4 ping 64 ------- 0 5.0 0.0 -1 57
r 1.951813 5 4 ping 64 ------- 0 5.0 0.0 -1 57
+ 1.951813 4 0 ping 64 ------- 0 5.0 0.0 -1 57
- 1.951813 4 0 ping 64 ------- 0 5.0 0.0 -1 57
r 1.952814 4 0 ping 64 ------- 0 5.0 0.0 -1 57
+ 2 0 4 ping 50000 ------- 0 0.0 5.0 -1 58
- 2 0 4 ping 50000 ------- 0 0.0 5.0 -1 58
+ 2 2 4 ping 30000 ------- 0 2.0 3.0 -1 59
d 2 2 4 ping 30000 ------- 0 2.0 3.0 -1 59
r 2.0018 0 4 ping 50000 ------- 0 0.0 5.0 -1 58
+ 2.0018 4 5 ping 50000 ------- 0 0.0 5.0 -1 58
- 2.0018 4 5 ping 50000 ------- 0 0.0 5.0 -1 58
- 2.02 2 4 ping 30000 ------- 0 2.0 3.0 -1 31
r 2.03 2 4 ping 30000 ------- 0 2.0 3.0 -1 16
+ 2.03 4 3 ping 30000 ------- 0 2.0 3.0 -1 16
r 2.0318 4 5 ping 50000 ------- 0 0.0 5.0 -1 58
+ 2.0318 5 4 ping 64 ------- 0 5.0 0.0 -1 60
- 2.0318 5 4 ping 64 ------- 0 5.0 0.0 -1 60
r 2.051813 5 4 ping 64 ------- 0 5.0 0.0 -1 60
+ 2.051813 4 0 ping 64 ------- 0 5.0 0.0 -1 60
- 2.051813 4 0 ping 64 ------- 0 5.0 0.0 -1 60
r 2.052814 4 0 ping 64 ------- 0 5.0 0.0 -1 60
+ 2.1 0 4 ping 50000 ------- 0 0.0 5.0 -1 61
- 2.1 0 4 ping 50000 ------- 0 0.0 5.0 -1 61
+ 2.1 2 4 ping 30000 ------- 0 2.0 3.0 -1 62
r 2.1018 0 4 ping 50000 ------- 0 0.0 5.0 -1 61
+ 2.1018 4 5 ping 50000 ------- 0 0.0 5.0 -1 61
- 2.1018 4 5 ping 50000 ------- 0 0.0 5.0 -1 61
r 2.1318 4 5 ping 50000 ------- 0 0.0 5.0 -1 61
+ 2.1318 5 4 ping 64 ------- 0 5.0 0.0 -1 63
- 2.1318 5 4 ping 64 ------- 0 5.0 0.0 -1 63
r 2.151813 5 4 ping 64 ------- 0 5.0 0.0 -1 63
+ 2.151813 4 0 ping 64 ------- 0 5.0 0.0 -1 63
- 2.151813 4 0 ping 64 ------- 0 5.0 0.0 -1 63
r 2.152814 4 0 ping 64 ------- 0 5.0 0.0 -1 63
+ 2.2 0 4 ping 50000 ------- 0 0.0 5.0 -1 64
- 2.2 0 4 ping 50000 ------- 0 0.0 5.0 -1 64
+ 2.2 2 4 ping 30000 ------- 0 2.0 3.0 -1 65
d 2.2 2 4 ping 30000 ------- 0 2.0 3.0 -1 65
r 2.2018 0 4 ping 50000 ------- 0 0.0 5.0 -1 64
+ 2.2018 4 5 ping 50000 ------- 0 0.0 5.0 -1 64
- 2.2018 4 5 ping 50000 ------- 0 0.0 5.0 -1 64
r 2.2318 4 5 ping 50000 ------- 0 0.0 5.0 -1 64
+ 2.2318 5 4 ping 64 ------- 0 5.0 0.0 -1 66
- 2.2318 5 4 ping 64 ------- 0 5.0 0.0 -1 66
r 2.251813 5 4 ping 64 ------- 0 5.0 0.0 -1 66
+ 2.251813 4 0 ping 64 ------- 0 5.0 0.0 -1 66
- 2.251813 4 0 ping 64 ------- 0 5.0 0.0 -1 66
r 2.252814 4 0 ping 64 ------- 0 5.0 0.0 -1 66
+ 2.3 0 4 ping 50000 ------- 0 0.0 5.0 -1 67
- 2.3 0 4 ping 50000 ------- 0 0.0 5.0 -1 67
+ 2.3 2 4 ping 30000 ------- 0 2.0 3.0 -1 68
d 2.3 2 4 ping 30000 ------- 0 2.0 3.0 -1 68
r 2.3018 0 4 ping 50000 ------- 0 0.0 5.0 -1 67
+ 2.3018 4 5 ping 50000 ------- 0 0.0 5.0 -1 67
- 2.3018 4 5 ping 50000 ------- 0 0.0 5.0 -1 67
r 2.3318 4 5 ping 50000 ------- 0 0.0 5.0 -1 67
+ 2.3318 5 4 ping 64 ------- 0 5.0 0.0 -1 69
- 2.3318 5 4 ping 64 ------- 0 5.0 0.0 -1 69
r 2.351813 5 4 ping 64 ------- 0 5.0 0.0 -1 69
+ 2.351813 4 0 ping 64 ------- 0 5.0 0.0 -1 69
- 2.351813 4 0 ping 64 ------- 0 5.0 0.0 -1 69
r 2.352814 4 0 ping 64 ------- 0 5.0 0.0 -1 69
+ 2.4 0 4 ping 50000 ------- 0 0.0 5.0 -1 70
- 2.4 0 4 ping 50000 ------- 0 0.0 5.0 -1 70
+ 2.4 2 4 ping 30000 ------- 0 2.0 3.0 -1 71
d 2.4 2 4 ping 30000 ------- 0 2.0 3.0 -1 71
r 2.4018 0 4 ping 50000 ------- 0 0.0 5.0 -1 70
+ 2.4018 4 5 ping 50000 ------- 0 0.0 5.0 -1 70
- 2.4018 4 5 ping 50000 ------- 0 0.0 5.0 -1 70
r 2.4318 4 5 ping 50000 ------- 0 0.0 5.0 -1 70
+ 2.4318 5 4 ping 64 ------- 0 5.0 0.0 -1 72
- 2.4318 5 4 ping 64 ------- 0 5.0 0.0 -1 72
r 2.451813 5 4 ping 64 ------- 0 5.0 0.0 -1 72
+ 2.451813 4 0 ping 64 ------- 0 5.0 0.0 -1 72
- 2.451813 4 0 ping 64 ------- 0 5.0 0.0 -1 72
r 2.452814 4 0 ping 64 ------- 0 5.0 0.0 -1 72
+ 2.5 0 4 ping 50000 ------- 0 0.0 5.0 -1 73
- 2.5 0 4 ping 50000 ------- 0 0.0 5.0 -1 73
+ 2.5 2 4 ping 30000 ------- 0 2.0 3.0 -1 74
d 2.5 2 4 ping 30000 ------- 0 2.0 3.0 -1 74
- 2.5 2 4 ping 30000 ------- 0 2.0 3.0 -1 46
r 2.5018 0 4 ping 50000 ------- 0 0.0 5.0 -1 73
+ 2.5018 4 5 ping 50000 ------- 0 0.0 5.0 -1 73
- 2.5018 4 5 ping 50000 ------- 0 0.0 5.0 -1 73
r 2.51 2 4 ping 30000 ------- 0 2.0 3.0 -1 31
+ 2.51 4 3 ping 30000 ------- 0 2.0 3.0 -1 31
r 2.5318 4 5 ping 50000 ------- 0 0.0 5.0 -1 73
+ 2.5318 5 4 ping 64 ------- 0 5.0 0.0 -1 75
- 2.5318 5 4 ping 64 ------- 0 5.0 0.0 -1 75
r 2.551813 5 4 ping 64 ------- 0 5.0 0.0 -1 75
+ 2.551813 4 0 ping 64 ------- 0 5.0 0.0 -1 75
- 2.551813 4 0 ping 64 ------- 0 5.0 0.0 -1 75
r 2.552814 4 0 ping 64 ------- 0 5.0 0.0 -1 75
+ 2.6 0 4 ping 50000 ------- 0 0.0 5.0 -1 76
- 2.6 0 4 ping 50000 ------- 0 0.0 5.0 -1 76
+ 2.6 2 4 ping 30000 ------- 0 2.0 3.0 -1 77
r 2.6018 0 4 ping 50000 ------- 0 0.0 5.0 -1 76
+ 2.6018 4 5 ping 50000 ------- 0 0.0 5.0 -1 76
- 2.6018 4 5 ping 50000 ------- 0 0.0 5.0 -1 76
r 2.6318 4 5 ping 50000 ------- 0 0.0 5.0 -1 76
+ 2.6318 5 4 ping 64 ------- 0 5.0 0.0 -1 78
- 2.6318 5 4 ping 64 ------- 0 5.0 0.0 -1 78
r 2.651813 5 4 ping 64 ------- 0 5.0 0.0 -1 78
+ 2.651813 4 0 ping 64 ------- 0 5.0 0.0 -1 78
- 2.651813 4 0 ping 64 ------- 0 5.0 0.0 -1 78
r 2.652814 4 0 ping 64 ------- 0 5.0 0.0 -1 78
+ 2.7 0 4 ping 50000 ------- 0 0.0 5.0 -1 79
- 2.7 0 4 ping 50000 ------- 0 0.0 5.0 -1 79
+ 2.7 2 4 ping 30000 ------- 0 2.0 3.0 -1 80
d 2.7 2 4 ping 30000 ------- 0 2.0 3.0 -1 80
r 2.7018 0 4 ping 50000 ------- 0 0.0 5.0 -1 79
+ 2.7018 4 5 ping 50000 ------- 0 0.0 5.0 -1 79
- 2.7018 4 5 ping 50000 ------- 0 0.0 5.0 -1 79
r 2.7318 4 5 ping 50000 ------- 0 0.0 5.0 -1 79
+ 2.7318 5 4 ping 64 ------- 0 5.0 0.0 -1 81
- 2.7318 5 4 ping 64 ------- 0 5.0 0.0 -1 81
r 2.751813 5 4 ping 64 ------- 0 5.0 0.0 -1 81
+ 2.751813 4 0 ping 64 ------- 0 5.0 0.0 -1 81
- 2.751813 4 0 ping 64 ------- 0 5.0 0.0 -1 81
r 2.752814 4 0 ping 64 ------- 0 5.0 0.0 -1 81
+ 2.8 0 4 ping 50000 ------- 0 0.0 5.0 -1 82
- 2.8 0 4 ping 50000 ------- 0 0.0 5.0 -1 82
+ 2.8 2 4 ping 30000 ------- 0 2.0 3.0 -1 83
d 2.8 2 4 ping 30000 ------- 0 2.0 3.0 -1 83
r 2.8018 0 4 ping 50000 ------- 0 0.0 5.0 -1 82
+ 2.8018 4 5 ping 50000 ------- 0 0.0 5.0 -1 82
- 2.8018 4 5 ping 50000 ------- 0 0.0 5.0 -1 82
r 2.8318 4 5 ping 50000 ------- 0 0.0 5.0 -1 82
+ 2.8318 5 4 ping 64 ------- 0 5.0 0.0 -1 84
- 2.8318 5 4 ping 64 ------- 0 5.0 0.0 -1 84
r 2.851813 5 4 ping 64 ------- 0 5.0 0.0 -1 84
+ 2.851813 4 0 ping 64 ------- 0 5.0 0.0 -1 84
- 2.851813 4 0 ping 64 ------- 0 5.0 0.0 -1 84
r 2.852814 4 0 ping 64 ------- 0 5.0 0.0 -1 84
+ 2.9 0 4 ping 50000 ------- 0 0.0 5.0 -1 85
- 2.9 0 4 ping 50000 ------- 0 0.0 5.0 -1 85
+ 2.9 2 4 ping 30000 ------- 0 2.0 3.0 -1 86
d 2.9 2 4 ping 30000 ------- 0 2.0 3.0 -1 86
r 2.9018 0 4 ping 50000 ------- 0 0.0 5.0 -1 85
+ 2.9018 4 5 ping 50000 ------- 0 0.0 5.0 -1 85
- 2.9018 4 5 ping 50000 ------- 0 0.0 5.0 -1 85
r 2.9318 4 5 ping 50000 ------- 0 0.0 5.0 -1 85
+ 2.9318 5 4 ping 64 ------- 0 5.0 0.0 -1 87
- 2.9318 5 4 ping 64 ------- 0 5.0 0.0 -1 87
r 2.951813 5 4 ping 64 ------- 0 5.0 0.0 -1 87
+ 2.951813 4 0 ping 64 ------- 0 5.0 0.0 -1 87
- 2.951813 4 0 ping 64 ------- 0 5.0 0.0 -1 87
r 2.952814 4 0 ping 64 ------- 0 5.0 0.0 -1 87
- 2.98 2 4 ping 30000 ------- 0 2.0 3.0 -1 62
- 2.99 4 3 ping 30000 ------- 0 2.0 3.0 -1 7
r 2.99 2 4 ping 30000 ------- 0 2.0 3.0 -1 46
+ 2.99 4 3 ping 30000 ------- 0 2.0 3.0 -1 46
